ITEM: TIMESTEP
0
ITEM: NUMBER OF ATOMS
304
ITEM: BOX BOUNDS pp pp pp
0.0000000000000000e+00 1.4778532000000000e+01
0.0000000000000000e+00 1.4778532000000000e+01
-1.0000000000000000e+02 1.3344000000000000e+02
ITEM: ATOMS id type xs ys zs
1 1 0 0 0.428376
2 1 0.2 0 0.428376
6 1 0 0.2 0.428376
10 1 0.2 0.2 0.428376
3 1 0.399999 0 0.428376
4 1 0.599999 0 0.428376
14 1 0.399999 0.2 0.428376
18 1 0.599999 0.2 0.428376
5 1 0.799998 0 0.428376
22 1 0.799998 0.2 0.428376
7 1 0 0.399999 0.428376
8 1 0 0.599999 0.428376
11 1 0.2 0.399999 0.428376
12 1 0.2 0.599999 0.428376
15 1 0.399999 0.399999 0.428376
16 1 0.399999 0.599999 0.428376
19 1 0.599999 0.399999 0.428376
20 1 0.599999 0.599999 0.428376
23 1 0.799998 0.399999 0.428376
24 1 0.799998 0.599999 0.428376
9 1 0 0.799998 0.428376
13 1 0.2 0.799998 0.428376
17 1 0.399999 0.799998 0.428376
21 1 0.599999 0.799998 0.428376
25 1 0.799998 0.799998 0.428376
26 1 0.100003 0.100003 0.437329
27 1 0.300003 0.100003 0.437329
31 1 0.100003 0.300003 0.437329
35 1 0.300003 0.300003 0.437329
51 1 0 0 0.446282
52 1 0.2 0 0.446282
56 1 0 0.2 0.446282
60 1 0.2 0.2 0.446282
28 1 0.500002 0.100003 0.437329
39 1 0.500002 0.300003 0.437329
53 1 0.399999 0 0.446282
54 1 0.599999 0 0.446282
64 1 0.399999 0.2 0.446282
68 1 0.599999 0.2 0.446282
29 1 0.700002 0.100003 0.437329
30 1 0.900001 0.100003 0.437329
43 1 0.700002 0.300003 0.437329
47 1 0.900001 0.300003 0.437329
55 1 0.799998 0 0.446282
72 1 0.799998 0.2 0.446282
32 1 0.100003 0.500002 0.437329
36 1 0.300003 0.500002 0.437329
57 1 0 0.399999 0.446282
58 1 0 0.599999 0.446282
61 1 0.2 0.399999 0.446282
62 1 0.2 0.599999 0.446282
40 1 0.500002 0.500002 0.437329
65 1 0.399999 0.399999 0.446282
66 1 0.399999 0.599999 0.446282
69 1 0.599999 0.399999 0.446282
70 1 0.599999 0.599999 0.446282
44 1 0.700002 0.500002 0.437329
48 1 0.900001 0.500002 0.437329
73 1 0.799998 0.399999 0.446282
74 1 0.799998 0.599999 0.446282
33 1 0.100003 0.700002 0.437329
34 1 0.100003 0.900001 0.437329
37 1 0.300003 0.700002 0.437329
38 1 0.300003 0.900001 0.437329
59 1 0 0.799998 0.446282
63 1 0.2 0.799998 0.446282
41 1 0.500002 0.700002 0.437329
42 1 0.500002 0.900001 0.437329
67 1 0.399999 0.799998 0.446282
71 1 0.599999 0.799998 0.446282
45 1 0.700002 0.700002 0.437329
46 1 0.700002 0.900001 0.437329
49 1 0.900001 0.700002 0.437329
50 1 0.900001 0.900001 0.437329
75 1 0.799998 0.799998 0.446282
76 1 0.100003 0.100003 0.455235
77 1 0.300003 0.100003 0.455235
81 1 0.100003 0.300003 0.455235
85 1 0.300003 0.300003 0.455235
101 1 0 0 0.464188
102 1 0.2 0 0.464188
106 1 0 0.2 0.464188
110 1 0.2 0.2 0.464188
78 1 0.500002 0.100003 0.455235
89 1 0.500002 0.300003 0.455235
103 1 0.399999 0 0.464188
104 1 0.599999 0 0.464188
114 1 0.399999 0.2 0.464188
118 1 0.599999 0.2 0.464188
79 1 0.700002 0.100003 0.455235
80 1 0.900001 0.100003 0.455235
93 1 0.700002 0.300003 0.455235
97 1 0.900001 0.300003 0.455235
105 1 0.799998 0 0.464188
122 1 0.799998 0.2 0.464188
82 1 0.100003 0.500002 0.455235
86 1 0.300003 0.500002 0.455235
107 1 0 0.399999 0.464188
108 1 0 0.599999 0.464188
111 1 0.2 0.399999 0.464188
112 1 0.2 0.599999 0.464188
90 1 0.500002 0.500002 0.455235
115 1 0.399999 0.399999 0.464188
116 1 0.399999 0.599999 0.464188
119 1 0.599999 0.399999 0.464188
120 1 0.599999 0.599999 0.464188
94 1 0.700002 0.500002 0.455235
98 1 0.900001 0.500002 0.455235
123 1 0.799998 0.399999 0.464188
124 1 0.799998 0.599999 0.464188
83 1 0.100003 0.700002 0.455235
84 1 0.100003 0.900001 0.455235
87 1 0.300003 0.700002 0.455235
88 1 0.300003 0.900001 0.455235
109 1 0 0.799998 0.464188
113 1 0.2 0.799998 0.464188
91 1 0.500002 0.700002 0.455235
92 1 0.500002 0.900001 0.455235
117 1 0.399999 0.799998 0.464188
121 1 0.599999 0.799998 0.464188
95 1 0.700002 0.700002 0.455235
96 1 0.700002 0.900001 0.455235
99 1 0.900001 0.700002 0.455235
100 1 0.900001 0.900001 0.455235
125 1 0.799998 0.799998 0.464188
126 1 0.293147 0.301046 0.471777
129 1 0.513352 0.311531 0.473295
138 1 0.496904 0.0963932 0.472792
141 1 0.609407 0.189498 0.480625
135 1 0.38991 0.222403 0.480509
132 1 0.704542 0.283055 0.472297
127 1 0.296163 0.500696 0.472375
136 1 0.273587 0.392631 0.481742
137 1 0.223995 0.597949 0.481363
130 1 0.496671 0.506345 0.473017
149 1 0.630094 0.613276 0.480766
142 1 0.68104 0.39852 0.481346
133 1 0.710427 0.50551 0.472458
128 1 0.299942 0.706511 0.472474
131 1 0.511486 0.707556 0.473133
140 1 0.402893 0.732728 0.481717
134 1 0.709791 0.709936 0.472017
144 1 0.333702 0.305655 0.491005
147 1 0.490925 0.192648 0.490158
159 1 0.592157 0.225636 0.499357
150 1 0.673297 0.28839 0.489672
145 1 0.257544 0.489569 0.49113
148 1 0.406721 0.542876 0.482909
139 1 0.505894 0.367135 0.485001
157 1 0.456745 0.466826 0.494491
143 1 0.6174 0.503651 0.489902
160 1 0.662659 0.400756 0.498799
152 1 0.51158 0.660917 0.490244
146 1 0.308612 0.672755 0.490894
162 1 0.289924 0.271604 0.509719
153 1 0.387928 0.218365 0.500527
165 1 0.508356 0.175189 0.50861
168 1 0.659541 0.308007 0.509688
154 1 0.294355 0.393365 0.500951
155 1 0.263099 0.587122 0.500956
163 1 0.292796 0.486634 0.511149
156 1 0.48068 0.365935 0.505884
151 1 0.592864 0.610609 0.500308
166 1 0.460305 0.54314 0.506906
169 1 0.665527 0.504038 0.508638
164 1 0.327946 0.678337 0.510292
158 1 0.413896 0.707754 0.500168
161 1 0.535363 0.718638 0.50935
171 1 0.19794 0.192847 0.518935
180 1 0.100003 0.100003 0.526859
181 1 0.300003 0.100003 0.526859
185 1 0.100003 0.300003 0.526859
189 1 0.300003 0.300003 0.526859
174 1 0.394801 0.192423 0.517901
177 1 0.595136 0.200424 0.518636
182 1 0.500002 0.100003 0.526859
193 1 0.500002 0.300003 0.526859
183 1 0.700002 0.100003 0.526859
184 1 0.900001 0.100003 0.526859
197 1 0.700002 0.300003 0.526859
201 1 0.900001 0.300003 0.526859
172 1 0.189122 0.388422 0.518518
173 1 0.185641 0.603193 0.518594
186 1 0.100003 0.500002 0.526859
190 1 0.300003 0.500002 0.526859
175 1 0.420437 0.392769 0.51777
179 1 0.607254 0.598297 0.518585
176 1 0.408716 0.590267 0.518485
178 1 0.616417 0.410893 0.518539
194 1 0.500002 0.500002 0.526859
198 1 0.700002 0.500002 0.526859
202 1 0.900001 0.500002 0.526859
187 1 0.100003 0.700002 0.526859
188 1 0.100003 0.900001 0.526859
191 1 0.300003 0.700002 0.526859
192 1 0.300003 0.900001 0.526859
170 1 0.401748 0.801427 0.518277
167 1 0.604656 0.799722 0.518522
195 1 0.500002 0.700002 0.526859
196 1 0.500002 0.900001 0.526859
199 1 0.700002 0.700002 0.526859
200 1 0.700002 0.900001 0.526859
203 1 0.900001 0.700002 0.526859
204 1 0.900001 0.900001 0.526859
205 1 0 0 0.535812
206 1 0.2 0 0.535812
210 1 0 0.2 0.535812
214 1 0.2 0.2 0.535812
230 1 0.100003 0.100003 0.544765
231 1 0.300003 0.100003 0.544765
235 1 0.100003 0.300003 0.544765
239 1 0.300003 0.300003 0.544765
207 1 0.399999 0 0.535812
208 1 0.599999 0 0.535812
218 1 0.399999 0.2 0.535812
222 1 0.599999 0.2 0.535812
232 1 0.500002 0.100003 0.544765
243 1 0.500002 0.300003 0.544765
209 1 0.799998 0 0.535812
226 1 0.799998 0.2 0.535812
233 1 0.700002 0.100003 0.544765
234 1 0.900001 0.100003 0.544765
247 1 0.700002 0.300003 0.544765
251 1 0.900001 0.300003 0.544765
211 1 0 0.399999 0.535812
212 1 0 0.599999 0.535812
215 1 0.2 0.399999 0.535812
216 1 0.2 0.599999 0.535812
236 1 0.100003 0.500002 0.544765
240 1 0.300003 0.500002 0.544765
219 1 0.399999 0.399999 0.535812
220 1 0.399999 0.599999 0.535812
223 1 0.599999 0.399999 0.535812
224 1 0.599999 0.599999 0.535812
244 1 0.500002 0.500002 0.544765
227 1 0.799998 0.399999 0.535812
228 1 0.799998 0.599999 0.535812
248 1 0.700002 0.500002 0.544765
252 1 0.900001 0.500002 0.544765
213 1 0 0.799998 0.535812
217 1 0.2 0.799998 0.535812
237 1 0.100003 0.700002 0.544765
238 1 0.100003 0.900001 0.544765
241 1 0.300003 0.700002 0.544765
242 1 0.300003 0.900001 0.544765
221 1 0.399999 0.799998 0.535812
225 1 0.599999 0.799998 0.535812
245 1 0.500002 0.700002 0.544765
246 1 0.500002 0.900001 0.544765
229 1 0.799998 0.799998 0.535812
249 1 0.700002 0.700002 0.544765
250 1 0.700002 0.900001 0.544765
253 1 0.900001 0.700002 0.544765
254 1 0.900001 0.900001 0.544765
255 1 0 0 0.553718
256 1 0.2 0 0.553718
260 1 0 0.2 0.553718
264 1 0.2 0.2 0.553718
280 1 0.100003 0.100003 0.562671
281 1 0.300003 0.100003 0.562671
285 1 0.100003 0.300003 0.562671
289 1 0.300003 0.300003 0.562671
257 1 0.399999 0 0.553718
258 1 0.599999 0 0.553718
268 1 0.399999 0.2 0.553718
272 1 0.599999 0.2 0.553718
282 1 0.500002 0.100003 0.562671
293 1 0.500002 0.300003 0.562671
259 1 0.799998 0 0.553718
276 1 0.799998 0.2 0.553718
283 1 0.700002 0.100003 0.562671
284 1 0.900001 0.100003 0.562671
297 1 0.700002 0.300003 0.562671
301 1 0.900001 0.300003 0.562671
261 1 0 0.399999 0.553718
262 1 0 0.599999 0.553718
265 1 0.2 0.399999 0.553718
266 1 0.2 0.599999 0.553718
286 1 0.100003 0.500002 0.562671
290 1 0.300003 0.500002 0.562671
269 1 0.399999 0.399999 0.553718
270 1 0.399999 0.599999 0.553718
273 1 0.599999 0.399999 0.553718
274 1 0.599999 0.599999 0.553718
294 1 0.500002 0.500002 0.562671
277 1 0.799998 0.399999 0.553718
278 1 0.799998 0.599999 0.553718
298 1 0.700002 0.500002 0.562671
302 1 0.900001 0.500002 0.562671
263 1 0 0.799998 0.553718
267 1 0.2 0.799998 0.553718
287 1 0.100003 0.700002 0.562671
288 1 0.100003 0.900001 0.562671
291 1 0.300003 0.700002 0.562671
292 1 0.300003 0.900001 0.562671
271 1 0.399999 0.799998 0.553718
275 1 0.599999 0.799998 0.553718
295 1 0.500002 0.700002 0.562671
296 1 0.500002 0.900001 0.562671
279 1 0.799998 0.799998 0.553718
299 1 0.700002 0.700002 0.562671
300 1 0.700002 0.900001 0.562671
303 1 0.900001 0.700002 0.562671
304 1 0.900001 0.900001 0.562671
ITEM: TIMESTEP
2000
ITEM: NUMBER OF ATOMS
304
ITEM: BOX BOUNDS pp pp pp
0.0000000000000000e+00 1.4778532000000000e+01
0.0000000000000000e+00 1.4778532000000000e+01
-1.0000000000000000e+02 1.3344000000000000e+02
ITEM: ATOMS id type xs ys zs
1 1 0 0 0.428136
2 1 0.2 0 0.428136
6 1 0 0.2 0.428136
10 1 0.2 0.2 0.428136
3 1 0.399999 0 0.428136
4 1 0.599999 0 0.428136
14 1 0.399999 0.2 0.428136
18 1 0.599999 0.2 0.428136
5 1 0.799998 0 0.428136
22 1 0.799998 0.2 0.428136
7 1 0 0.399999 0.428136
8 1 0 0.599999 0.428136
11 1 0.2 0.399999 0.428136
12 1 0.2 0.599999 0.428136
15 1 0.399999 0.399999 0.428136
16 1 0.399999 0.599999 0.428136
19 1 0.599999 0.399999 0.428136
20 1 0.599999 0.599999 0.428136
23 1 0.799998 0.399999 0.428136
24 1 0.799998 0.599999 0.428136
9 1 0 0.799998 0.428136
13 1 0.2 0.799998 0.428136
17 1 0.399999 0.799998 0.428136
21 1 0.599999 0.799998 0.428136
25 1 0.799998 0.799998 0.428136
26 1 0.100003 0.100003 0.437089
27 1 0.300003 0.100003 0.437089
31 1 0.100003 0.300003 0.437089
35 1 0.300003 0.300003 0.437089
51 1 0 0 0.446042
52 1 0.2 0 0.446042
56 1 0 0.2 0.446042
60 1 0.2 0.2 0.446042
28 1 0.500002 0.100003 0.437089
39 1 0.500002 0.300003 0.437089
53 1 0.399999 0 0.446042
54 1 0.599999 0 0.446042
64 1 0.399999 0.2 0.446042
68 1 0.599999 0.2 0.446042
29 1 0.700002 0.100003 0.437089
30 1 0.900001 0.100003 0.437089
43 1 0.700002 0.300003 0.437089
47 1 0.900001 0.300003 0.437089
55 1 0.799998 0 0.446042
72 1 0.799998 0.2 0.446042
32 1 0.100003 0.500002 0.437089
36 1 0.300003 0.500002 0.437089
57 1 0 0.399999 0.446042
58 1 0 0.599999 0.446042
61 1 0.2 0.399999 0.446042
62 1 0.2 0.599999 0.446042
40 1 0.500002 0.500002 0.437089
65 1 0.399999 0.399999 0.446042
66 1 0.399999 0.599999 0.446042
69 1 0.599999 0.399999 0.446042
70 1 0.599999 0.599999 0.446042
44 1 0.700002 0.500002 0.437089
48 1 0.900001 0.500002 0.437089
73 1 0.799998 0.399999 0.446042
74 1 0.799998 0.599999 0.446042
33 1 0.100003 0.700002 0.437089
34 1 0.100003 0.900001 0.437089
37 1 0.300003 0.700002 0.437089
38 1 0.300003 0.900001 0.437089
59 1 0 0.799998 0.446042
63 1 0.2 0.799998 0.446042
41 1 0.500002 0.700002 0.437089
42 1 0.500002 0.900001 0.437089
67 1 0.399999 0.799998 0.446042
71 1 0.599999 0.799998 0.446042
45 1 0.700002 0.700002 0.437089
46 1 0.700002 0.900001 0.437089
49 1 0.900001 0.700002 0.437089
50 1 0.900001 0.900001 0.437089
75 1 0.799998 0.799998 0.446042
76 1 0.100003 0.100003 0.454995
77 1 0.300003 0.100003 0.454995
81 1 0.100003 0.300003 0.454995
85 1 0.300003 0.300003 0.454995
101 1 0 0 0.463948
102 1 0.2 0 0.463948
106 1 0 0.2 0.463948
110 1 0.2 0.2 0.463948
78 1 0.500002 0.100003 0.454995
89 1 0.500002 0.300003 0.454995
103 1 0.399999 0 0.463948
104 1 0.599999 0 0.463948
114 1 0.399999 0.2 0.463948
118 1 0.599999 0.2 0.463948
79 1 0.700002 0.100003 0.454995
80 1 0.900001 0.100003 0.454995
93 1 0.700002 0.300003 0.454995
97 1 0.900001 0.300003 0.454995
105 1 0.799998 0 0.463948
122 1 0.799998 0.2 0.463948
82 1 0.100003 0.500002 0.454995
86 1 0.300003 0.500002 0.454995
107 1 0 0.399999 0.463948
108 1 0 0.599999 0.463948
111 1 0.2 0.399999 0.463948
112 1 0.2 0.599999 0.463948
90 1 0.500002 0.500002 0.454995
115 1 0.399999 0.399999 0.463948
116 1 0.399999 0.599999 0.463948
119 1 0.599999 0.399999 0.463948
120 1 0.599999 0.599999 0.463948
94 1 0.700002 0.500002 0.454995
98 1 0.900001 0.500002 0.454995
123 1 0.799998 0.399999 0.463948
124 1 0.799998 0.599999 0.463948
83 1 0.100003 0.700002 0.454995
84 1 0.100003 0.900001 0.454995
87 1 0.300003 0.700002 0.454995
88 1 0.300003 0.900001 0.454995
109 1 0 0.799998 0.463948
113 1 0.2 0.799998 0.463948
91 1 0.500002 0.700002 0.454995
92 1 0.500002 0.900001 0.454995
117 1 0.399999 0.799998 0.463948
121 1 0.599999 0.799998 0.463948
95 1 0.700002 0.700002 0.454995
96 1 0.700002 0.900001 0.454995
99 1 0.900001 0.700002 0.454995
100 1 0.900001 0.900001 0.454995
125 1 0.799998 0.799998 0.463948
126 1 0.284283 0.286022 0.472329
129 1 0.487772 0.303986 0.472715
138 1 0.505823 0.103468 0.47207
141 1 0.587886 0.209545 0.480242
135 1 0.385997 0.207338 0.481166
132 1 0.707314 0.305116 0.472099
127 1 0.294647 0.484148 0.472391
136 1 0.291389 0.385816 0.481566
137 1 0.23732 0.593707 0.481671
130 1 0.490149 0.490519 0.473232
149 1 0.599374 0.603335 0.48076
148 1 0.413714 0.537168 0.484974
142 1 0.640837 0.4222 0.480454
133 1 0.696415 0.503157 0.471412
128 1 0.295237 0.691727 0.471821
131 1 0.4924 0.690767 0.472275
140 1 0.388714 0.717053 0.481566
134 1 0.695828 0.705597 0.472102
144 1 0.316724 0.287085 0.491495
147 1 0.486162 0.186082 0.490421
159 1 0.587085 0.23849 0.499928
150 1 0.639611 0.315633 0.490127
145 1 0.268004 0.484492 0.491406
139 1 0.480769 0.369432 0.48467
157 1 0.447964 0.479186 0.495953
143 1 0.628374 0.515033 0.491312
160 1 0.678123 0.409925 0.499673
146 1 0.315336 0.693357 0.491628
152 1 0.516351 0.669134 0.490607
162 1 0.31051 0.29246 0.511118
153 1 0.391382 0.222086 0.500708
165 1 0.513209 0.185926 0.509769
168 1 0.667417 0.313008 0.509935
154 1 0.288548 0.393191 0.501103
155 1 0.262298 0.598073 0.501035
163 1 0.264968 0.50863 0.511225
156 1 0.490253 0.372491 0.505948
151 1 0.600475 0.608825 0.500557
166 1 0.437618 0.545596 0.507232
169 1 0.631352 0.496756 0.509699
175 1 0.421776 0.408584 0.517852
164 1 0.312796 0.692499 0.509991
158 1 0.42937 0.71057 0.500791
161 1 0.541344 0.690692 0.510155
171 1 0.189866 0.198479 0.518549
180 1 0.100003 0.100003 0.527099
181 1 0.300003 0.100003 0.527099
185 1 0.100003 0.300003 0.527099
189 1 0.300003 0.300003 0.527099
174 1 0.396679 0.183676 0.51846
177 1 0.611522 0.19612 0.518967
182 1 0.500002 0.100003 0.527099
193 1 0.500002 0.300003 0.527099
183 1 0.700002 0.100003 0.527099
184 1 0.900001 0.100003 0.527099
197 1 0.700002 0.300003 0.527099
201 1 0.900001 0.300003 0.527099
172 1 0.202546 0.394849 0.518822
173 1 0.19124 0.609988 0.519134
186 1 0.100003 0.500002 0.527099
190 1 0.300003 0.500002 0.527099
179 1 0.606231 0.594686 0.519164
176 1 0.398088 0.59825 0.518452
178 1 0.610822 0.402528 0.519088
194 1 0.500002 0.500002 0.527099
198 1 0.700002 0.500002 0.527099
202 1 0.900001 0.500002 0.527099
187 1 0.100003 0.700002 0.527099
188 1 0.100003 0.900001 0.527099
191 1 0.300003 0.700002 0.527099
192 1 0.300003 0.900001 0.527099
170 1 0.394741 0.800685 0.5186
167 1 0.595333 0.808549 0.518469
195 1 0.500002 0.700002 0.527099
196 1 0.500002 0.900001 0.527099
199 1 0.700002 0.700002 0.527099
200 1 0.700002 0.900001 0.527099
203 1 0.900001 0.700002 0.527099
204 1 0.900001 0.900001 0.527099
205 1 0 0 0.536052
206 1 0.2 0 0.536052
210 1 0 0.2 0.536052
214 1 0.2 0.2 0.536052
230 1 0.100003 0.100003 0.545005
231 1 0.300003 0.100003 0.545005
235 1 0.100003 0.300003 0.545005
239 1 0.300003 0.300003 0.545005
207 1 0.399999 0 0.536052
208 1 0.599999 0 0.536052
218 1 0.399999 0.2 0.536052
222 1 0.599999 0.2 0.536052
232 1 0.500002 0.100003 0.545005
243 1 0.500002 0.300003 0.545005
209 1 0.799998 0 0.536052
226 1 0.799998 0.2 0.536052
233 1 0.700002 0.100003 0.545005
234 1 0.900001 0.100003 0.545005
247 1 0.700002 0.300003 0.545005
251 1 0.900001 0.300003 0.545005
211 1 0 0.399999 0.536052
212 1 0 0.599999 0.536052
215 1 0.2 0.399999 0.536052
216 1 0.2 0.599999 0.536052
236 1 0.100003 0.500002 0.545005
240 1 0.300003 0.500002 0.545005
219 1 0.399999 0.399999 0.536052
220 1 0.399999 0.599999 0.536052
223 1 0.599999 0.399999 0.536052
224 1 0.599999 0.599999 0.536052
244 1 0.500002 0.500002 0.545005
227 1 0.799998 0.399999 0.536052
228 1 0.799998 0.599999 0.536052
248 1 0.700002 0.500002 0.545005
252 1 0.900001 0.500002 0.545005
213 1 0 0.799998 0.536052
217 1 0.2 0.799998 0.536052
237 1 0.100003 0.700002 0.545005
238 1 0.100003 0.900001 0.545005
241 1 0.300003 0.700002 0.545005
242 1 0.300003 0.900001 0.545005
221 1 0.399999 0.799998 0.536052
225 1 0.599999 0.799998 0.536052
245 1 0.500002 0.700002 0.545005
246 1 0.500002 0.900001 0.545005
229 1 0.799998 0.799998 0.536052
249 1 0.700002 0.700002 0.545005
250 1 0.700002 0.900001 0.545005
253 1 0.900001 0.700002 0.545005
254 1 0.900001 0.900001 0.545005
255 1 0 0 0.553958
256 1 0.2 0 0.553958
260 1 0 0.2 0.553958
264 1 0.2 0.2 0.553958
280 1 0.100003 0.100003 0.562911
281 1 0.300003 0.100003 0.562911
285 1 0.100003 0.300003 0.562911
289 1 0.300003 0.300003 0.562911
257 1 0.399999 0 0.553958
258 1 0.599999 0 0.553958
268 1 0.399999 0.2 0.553958
272 1 0.599999 0.2 0.553958
282 1 0.500002 0.100003 0.562911
293 1 0.500002 0.300003 0.562911
259 1 0.799998 0 0.553958
276 1 0.799998 0.2 0.553958
283 1 0.700002 0.100003 0.562911
284 1 0.900001 0.100003 0.562911
297 1 0.700002 0.300003 0.562911
301 1 0.900001 0.300003 0.562911
261 1 0 0.399999 0.553958
262 1 0 0.599999 0.553958
265 1 0.2 0.399999 0.553958
266 1 0.2 0.599999 0.553958
286 1 0.100003 0.500002 0.562911
290 1 0.300003 0.500002 0.562911
269 1 0.399999 0.399999 0.553958
270 1 0.399999 0.599999 0.553958
273 1 0.599999 0.399999 0.553958
274 1 0.599999 0.599999 0.553958
294 1 0.500002 0.500002 0.562911
277 1 0.799998 0.399999 0.553958
278 1 0.799998 0.599999 0.553958
298 1 0.700002 0.500002 0.562911
302 1 0.900001 0.500002 0.562911
263 1 0 0.799998 0.553958
267 1 0.2 0.799998 0.553958
287 1 0.100003 0.700002 0.562911
288 1 0.100003 0.900001 0.562911
291 1 0.300003 0.700002 0.562911
292 1 0.300003 0.900001 0.562911
271 1 0.399999 0.799998 0.553958
275 1 0.599999 0.799998 0.553958
295 1 0.500002 0.700002 0.562911
296 1 0.500002 0.900001 0.562911
279 1 0.799998 0.799998 0.553958
299 1 0.700002 0.700002 0.562911
300 1 0.700002 0.900001 0.562911
303 1 0.900001 0.700002 0.562911
304 1 0.900001 0.900001 0.562911
ITEM: TIMESTEP
4000
ITEM: NUMBER OF ATOMS
304
ITEM: BOX BOUNDS pp pp pp
0.0000000000000000e+00 1.4778532000000000e+01
0.0000000000000000e+00 1.4778532000000000e+01
-1.0000000000000000e+02 1.3344000000000000e+02
ITEM: ATOMS id type xs ys zs
1 1 0 0 0.427896
2 1 0.2 0 0.427896
6 1 0 0.2 0.427896
10 1 0.2 0.2 0.427896
3 1 0.399999 0 0.427896
4 1 0.599999 0 0.427896
14 1 0.399999 0.2 0.427896
18 1 0.599999 0.2 0.427896
5 1 0.799998 0 0.427896
22 1 0.799998 0.2 0.427896
7 1 0 0.399999 0.427896
8 1 0 0.599999 0.427896
11 1 0.2 0.399999 0.427896
12 1 0.2 0.599999 0.427896
15 1 0.399999 0.399999 0.427896
16 1 0.399999 0.599999 0.427896
19 1 0.599999 0.399999 0.427896
20 1 0.599999 0.599999 0.427896
23 1 0.799998 0.399999 0.427896
24 1 0.799998 0.599999 0.427896
9 1 0 0.799998 0.427896
13 1 0.2 0.799998 0.427896
17 1 0.399999 0.799998 0.427896
21 1 0.599999 0.799998 0.427896
25 1 0.799998 0.799998 0.427896
26 1 0.100003 0.100003 0.436849
27 1 0.300003 0.100003 0.436849
31 1 0.100003 0.300003 0.436849
35 1 0.300003 0.300003 0.436849
51 1 0 0 0.445802
52 1 0.2 0 0.445802
56 1 0 0.2 0.445802
60 1 0.2 0.2 0.445802
28 1 0.500002 0.100003 0.436849
39 1 0.500002 0.300003 0.436849
53 1 0.399999 0 0.445802
54 1 0.599999 0 0.445802
64 1 0.399999 0.2 0.445802
68 1 0.599999 0.2 0.445802
29 1 0.700002 0.100003 0.436849
30 1 0.900001 0.100003 0.436849
43 1 0.700002 0.300003 0.436849
47 1 0.900001 0.300003 0.436849
55 1 0.799998 0 0.445802
72 1 0.799998 0.2 0.445802
32 1 0.100003 0.500002 0.436849
36 1 0.300003 0.500002 0.436849
57 1 0 0.399999 0.445802
58 1 0 0.599999 0.445802
61 1 0.2 0.399999 0.445802
62 1 0.2 0.599999 0.445802
40 1 0.500002 0.500002 0.436849
65 1 0.399999 0.399999 0.445802
66 1 0.399999 0.599999 0.445802
69 1 0.599999 0.399999 0.445802
70 1 0.599999 0.599999 0.445802
44 1 0.700002 0.500002 0.436849
48 1 0.900001 0.500002 0.436849
73 1 0.799998 0.399999 0.445802
74 1 0.799998 0.599999 0.445802
33 1 0.100003 0.700002 0.436849
34 1 0.100003 0.900001 0.436849
37 1 0.300003 0.700002 0.436849
38 1 0.300003 0.900001 0.436849
59 1 0 0.799998 0.445802
63 1 0.2 0.799998 0.445802
41 1 0.500002 0.700002 0.436849
42 1 0.500002 0.900001 0.436849
67 1 0.399999 0.799998 0.445802
71 1 0.599999 0.799998 0.445802
45 1 0.700002 0.700002 0.436849
46 1 0.700002 0.900001 0.436849
49 1 0.900001 0.700002 0.436849
50 1 0.900001 0.900001 0.436849
75 1 0.799998 0.799998 0.445802
76 1 0.100003 0.100003 0.454755
77 1 0.300003 0.100003 0.454755
81 1 0.100003 0.300003 0.454755
85 1 0.300003 0.300003 0.454755
101 1 0 0 0.463708
102 1 0.2 0 0.463708
106 1 0 0.2 0.463708
110 1 0.2 0.2 0.463708
78 1 0.500002 0.100003 0.454755
89 1 0.500002 0.300003 0.454755
103 1 0.399999 0 0.463708
104 1 0.599999 0 0.463708
114 1 0.399999 0.2 0.463708
118 1 0.599999 0.2 0.463708
79 1 0.700002 0.100003 0.454755
80 1 0.900001 0.100003 0.454755
93 1 0.700002 0.300003 0.454755
97 1 0.900001 0.300003 0.454755
105 1 0.799998 0 0.463708
122 1 0.799998 0.2 0.463708
82 1 0.100003 0.500002 0.454755
86 1 0.300003 0.500002 0.454755
107 1 0 0.399999 0.463708
108 1 0 0.599999 0.463708
111 1 0.2 0.399999 0.463708
112 1 0.2 0.599999 0.463708
90 1 0.500002 0.500002 0.454755
115 1 0.399999 0.399999 0.463708
116 1 0.399999 0.599999 0.463708
119 1 0.599999 0.399999 0.463708
120 1 0.599999 0.599999 0.463708
94 1 0.700002 0.500002 0.454755
98 1 0.900001 0.500002 0.454755
123 1 0.799998 0.399999 0.463708
124 1 0.799998 0.599999 0.463708
83 1 0.100003 0.700002 0.454755
84 1 0.100003 0.900001 0.454755
87 1 0.300003 0.700002 0.454755
88 1 0.300003 0.900001 0.454755
109 1 0 0.799998 0.463708
113 1 0.2 0.799998 0.463708
91 1 0.500002 0.700002 0.454755
92 1 0.500002 0.900001 0.454755
117 1 0.399999 0.799998 0.463708
121 1 0.599999 0.799998 0.463708
95 1 0.700002 0.700002 0.454755
96 1 0.700002 0.900001 0.454755
99 1 0.900001 0.700002 0.454755
100 1 0.900001 0.900001 0.454755
125 1 0.799998 0.799998 0.463708
126 1 0.29332 0.297741 0.471758
129 1 0.495406 0.299582 0.471726
138 1 0.49654 0.0943923 0.471776
141 1 0.599149 0.197972 0.480197
135 1 0.393905 0.203804 0.480199
132 1 0.707725 0.294952 0.471524
127 1 0.300787 0.507038 0.472594
136 1 0.282832 0.390008 0.481442
137 1 0.244749 0.610753 0.481949
130 1 0.500327 0.496081 0.472287
149 1 0.605722 0.607354 0.480366
142 1 0.671433 0.394102 0.480954
133 1 0.705777 0.49973 0.471904
128 1 0.295063 0.703523 0.471935
131 1 0.502979 0.691716 0.471437
140 1 0.412493 0.732954 0.481327
134 1 0.705524 0.686729 0.471869
144 1 0.324768 0.294925 0.490776
147 1 0.487561 0.178105 0.490002
150 1 0.654089 0.287441 0.489836
145 1 0.26715 0.485372 0.491285
148 1 0.420616 0.535684 0.483066
139 1 0.481702 0.364333 0.483826
157 1 0.443239 0.458935 0.495387
143 1 0.595641 0.499942 0.489623
151 1 0.598852 0.595528 0.49956
146 1 0.337976 0.677237 0.491271
152 1 0.52625 0.682306 0.489981
162 1 0.300479 0.274987 0.510001
159 1 0.580744 0.221882 0.49991
153 1 0.387007 0.205536 0.49991
165 1 0.482054 0.159988 0.509403
168 1 0.649467 0.301774 0.509466
154 1 0.283609 0.379953 0.500793
155 1 0.294129 0.58864 0.500652
163 1 0.253682 0.500132 0.510251
160 1 0.646899 0.397987 0.498932
156 1 0.462992 0.352279 0.506012
166 1 0.454385 0.547882 0.508431
169 1 0.629935 0.485447 0.508775
164 1 0.318089 0.687784 0.510404
158 1 0.438043 0.706701 0.501046
161 1 0.568991 0.710352 0.509632
171 1 0.194792 0.209139 0.518685
180 1 0.100003 0.100003 0.527339
181 1 0.300003 0.100003 0.527339
185 1 0.100003 0.300003 0.527339
189 1 0.300003 0.300003 0.527339
174 1 0.392674 0.196527 0.519129
177 1 0.591419 0.191342 0.518582
182 1 0.500002 0.100003 0.527339
193 1 0.500002 0.300003 0.527339
183 1 0.700002 0.100003 0.527339
184 1 0.900001 0.100003 0.527339
197 1 0.700002 0.300003 0.527339
201 1 0.900001 0.300003 0.527339
172 1 0.178244 0.394521 0.518694
173 1 0.19417 0.593673 0.519116
186 1 0.100003 0.500002 0.527339
190 1 0.300003 0.500002 0.527339
175 1 0.399517 0.399902 0.517245
179 1 0.606093 0.597074 0.518912
176 1 0.39674 0.589315 0.51903
178 1 0.605962 0.40239 0.519287
194 1 0.500002 0.500002 0.527339
198 1 0.700002 0.500002 0.527339
202 1 0.900001 0.500002 0.527339
187 1 0.100003 0.700002 0.527339
188 1 0.100003 0.900001 0.527339
191 1 0.300003 0.700002 0.527339
192 1 0.300003 0.900001 0.527339
170 1 0.404871 0.804651 0.518077
167 1 0.597922 0.800371 0.519532
195 1 0.500002 0.700002 0.527339
196 1 0.500002 0.900001 0.527339
199 1 0.700002 0.700002 0.527339
200 1 0.700002 0.900001 0.527339
203 1 0.900001 0.700002 0.527339
204 1 0.900001 0.900001 0.527339
205 1 0 0 0.536292
206 1 0.2 0 0.536292
210 1 0 0.2 0.536292
214 1 0.2 0.2 0.536292
230 1 0.100003 0.100003 0.545245
231 1 0.300003 0.100003 0.545245
235 1 0.100003 0.300003 0.545245
239 1 0.300003 0.300003 0.545245
207 1 0.399999 0 0.536292
208 1 0.599999 0 0.536292
218 1 0.399999 0.2 0.536292
222 1 0.599999 0.2 0.536292
232 1 0.500002 0.100003 0.545245
243 1 0.500002 0.300003 0.545245
209 1 0.799998 0 0.536292
226 1 0.799998 0.2 0.536292
233 1 0.700002 0.100003 0.545245
234 1 0.900001 0.100003 0.545245
247 1 0.700002 0.300003 0.545245
251 1 0.900001 0.300003 0.545245
211 1 0 0.399999 0.536292
212 1 0 0.599999 0.536292
215 1 0.2 0.399999 0.536292
216 1 0.2 0.599999 0.536292
236 1 0.100003 0.500002 0.545245
240 1 0.300003 0.500002 0.545245
219 1 0.399999 0.399999 0.536292
220 1 0.399999 0.599999 0.536292
223 1 0.599999 0.399999 0.536292
224 1 0.599999 0.599999 0.536292
244 1 0.500002 0.500002 0.545245
227 1 0.799998 0.399999 0.536292
228 1 0.799998 0.599999 0.536292
248 1 0.700002 0.500002 0.545245
252 1 0.900001 0.500002 0.545245
213 1 0 0.799998 0.536292
217 1 0.2 0.799998 0.536292
237 1 0.100003 0.700002 0.545245
238 1 0.100003 0.900001 0.545245
241 1 0.300003 0.700002 0.545245
242 1 0.300003 0.900001 0.545245
221 1 0.399999 0.799998 0.536292
225 1 0.599999 0.799998 0.536292
245 1 0.500002 0.700002 0.545245
246 1 0.500002 0.900001 0.545245
229 1 0.799998 0.799998 0.536292
249 1 0.700002 0.700002 0.545245
250 1 0.700002 0.900001 0.545245
253 1 0.900001 0.700002 0.545245
254 1 0.900001 0.900001 0.545245
255 1 0 0 0.554198
256 1 0.2 0 0.554198
260 1 0 0.2 0.554198
264 1 0.2 0.2 0.554198
280 1 0.100003 0.100003 0.563151
281 1 0.300003 0.100003 0.563151
285 1 0.100003 0.300003 0.563151
289 1 0.300003 0.300003 0.563151
257 1 0.399999 0 0.554198
258 1 0.599999 0 0.554198
268 1 0.399999 0.2 0.554198
272 1 0.599999 0.2 0.554198
282 1 0.500002 0.100003 0.563151
293 1 0.500002 0.300003 0.563151
259 1 0.799998 0 0.554198
276 1 0.799998 0.2 0.554198
283 1 0.700002 0.100003 0.563151
284 1 0.900001 0.100003 0.563151
297 1 0.700002 0.300003 0.563151
301 1 0.900001 0.300003 0.563151
261 1 0 0.399999 0.554198
262 1 0 0.599999 0.554198
265 1 0.2 0.399999 0.554198
266 1 0.2 0.599999 0.554198
286 1 0.100003 0.500002 0.563151
290 1 0.300003 0.500002 0.563151
269 1 0.399999 0.399999 0.554198
270 1 0.399999 0.599999 0.554198
273 1 0.599999 0.399999 0.554198
274 1 0.599999 0.599999 0.554198
294 1 0.500002 0.500002 0.563151
277 1 0.799998 0.399999 0.554198
278 1 0.799998 0.599999 0.554198
298 1 0.700002 0.500002 0.563151
302 1 0.900001 0.500002 0.563151
263 1 0 0.799998 0.554198
267 1 0.2 0.799998 0.554198
287 1 0.100003 0.700002 0.563151
288 1 0.100003 0.900001 0.563151
291 1 0.300003 0.700002 0.563151
292 1 0.300003 0.900001 0.563151
271 1 0.399999 0.799998 0.554198
275 1 0.599999 0.799998 0.554198
295 1 0.500002 0.700002 0.563151
296 1 0.500002 0.900001 0.563151
279 1 0.799998 0.799998 0.554198
299 1 0.700002 0.700002 0.563151
300 1 0.700002 0.900001 0.563151
303 1 0.900001 0.700002 0.563151
304 1 0.900001 0.900001 0.563151
ITEM: TIMESTEP
6000
ITEM: NUMBER OF ATOMS
304
ITEM: BOX BOUNDS pp pp pp
0.0000000000000000e+00 1.4778532000000000e+01
0.0000000000000000e+00 1.4778532000000000e+01
-1.0000000000000000e+02 1.3344000000000000e+02
ITEM: ATOMS id type xs ys zs
1 1 0 0 0.427656
2 1 0.2 0 0.427656
6 1 0 0.2 0.427656
10 1 0.2 0.2 0.427656
3 1 0.399999 0 0.427656
4 1 0.599999 0 0.427656
14 1 0.399999 0.2 0.427656
18 1 0.599999 0.2 0.427656
5 1 0.799998 0 0.427656
22 1 0.799998 0.2 0.427656
7 1 0 0.399999 0.427656
8 1 0 0.599999 0.427656
11 1 0.2 0.399999 0.427656
12 1 0.2 0.599999 0.427656
15 1 0.399999 0.399999 0.427656
16 1 0.399999 0.599999 0.427656
19 1 0.599999 0.399999 0.427656
20 1 0.599999 0.599999 0.427656
23 1 0.799998 0.399999 0.427656
24 1 0.799998 0.599999 0.427656
9 1 0 0.799998 0.427656
13 1 0.2 0.799998 0.427656
17 1 0.399999 0.799998 0.427656
21 1 0.599999 0.799998 0.427656
25 1 0.799998 0.799998 0.427656
26 1 0.100003 0.100003 0.436609
27 1 0.300003 0.100003 0.436609
31 1 0.100003 0.300003 0.436609
35 1 0.300003 0.300003 0.436609
51 1 0 0 0.445562
52 1 0.2 0 0.445562
56 1 0 0.2 0.445562
60 1 0.2 0.2 0.445562
28 1 0.500002 0.100003 0.436609
39 1 0.500002 0.300003 0.436609
53 1 0.399999 0 0.445562
54 1 0.599999 0 0.445562
64 1 0.399999 0.2 0.445562
68 1 0.599999 0.2 0.445562
29 1 0.700002 0.100003 0.436609
30 1 0.900001 0.100003 0.436609