ITEM: TIMESTEP
0
ITEM: NUMBER OF ATOMS
304
ITEM: BOX BOUNDS pp pp pp
0.0000000000000000e+00 1.4778532000000000e+01
0.0000000000000000e+00 1.4778532000000000e+01
-1.0000000000000000e+02 1.3344000000000000e+02
ITEM: ATOMS id type xs ys zs
1 1 0 0 0.428376
2 1 0.2 0 0.428376
6 1 0 0.2 0.428376
10 1 0.2 0.2 0.428376
3 1 0.399999 0 0.428376
4 1 0.599999 0 0.428376
14 1 0.399999 0.2 0.428376
18 1 0.599999 0.2 0.428376
5 1 0.799998 0 0.428376
22 1 0.799998 0.2 0.428376
7 1 0 0.399999 0.428376
8 1 0 0.599999 0.428376
11 1 0.2 0.399999 0.428376
12 1 0.2 0.599999 0.428376
15 1 0.399999 0.399999 0.428376
16 1 0.399999 0.599999 0.428376
19 1 0.599999 0.399999 0.428376
20 1 0.599999 0.599999 0.428376
23 1 0.799998 0.399999 0.428376
24 1 0.799998 0.599999 0.428376
9 1 0 0.799998 0.428376
13 1 0.2 0.799998 0.428376
17 1 0.399999 0.799998 0.428376
21 1 0.599999 0.799998 0.428376
25 1 0.799998 0.799998 0.428376
26 1 0.100003 0.100003 0.437329
27 1 0.300003 0.100003 0.437329
31 1 0.100003 0.300003 0.437329
35 1 0.300003 0.300003 0.437329
51 1 0 0 0.446282
52 1 0.2 0 0.446282
56 1 0 0.2 0.446282
60 1 0.2 0.2 0.446282
28 1 0.500002 0.100003 0.437329
39 1 0.500002 0.300003 0.437329
53 1 0.399999 0 0.446282
54 1 0.599999 0 0.446282
64 1 0.399999 0.2 0.446282
68 1 0.599999 0.2 0.446282
29 1 0.700002 0.100003 0.437329
30 1 0.900001 0.100003 0.437329
43 1 0.700002 0.300003 0.437329
47 1 0.900001 0.300003 0.437329
55 1 0.799998 0 0.446282
72 1 0.799998 0.2 0.446282
32 1 0.100003 0.500002 0.437329
36 1 0.300003 0.500002 0.437329
57 1 0 0.399999 0.446282
58 1 0 0.599999 0.446282
61 1 0.2 0.399999 0.446282
62 1 0.2 0.599999 0.446282
40 1 0.500002 0.500002 0.437329
65 1 0.399999 0.399999 0.446282
66 1 0.399999 0.599999 0.446282
69 1 0.599999 0.399999 0.446282
70 1 0.599999 0.599999 0.446282
44 1 0.700002 0.500002 0.437329
48 1 0.900001 0.500002 0.437329
73 1 0.799998 0.399999 0.446282
74 1 0.799998 0.599999 0.446282
33 1 0.100003 0.700002 0.437329
34 1 0.100003 0.900001 0.437329
37 1 0.300003 0.700002 0.437329
38 1 0.300003 0.900001 0.437329
59 1 0 0.799998 0.446282
63 1 0.2 0.799998 0.446282
41 1 0.500002 0.700002 0.437329
42 1 0.500002 0.900001 0.437329
67 1 0.399999 0.799998 0.446282
71 1 0.599999 0.799998 0.446282
45 1 0.700002 0.700002 0.437329
46 1 0.700002 0.900001 0.437329
49 1 0.900001 0.700002 0.437329
50 1 0.900001 0.900001 0.437329
75 1 0.799998 0.799998 0.446282
76 1 0.100003 0.100003 0.455235
77 1 0.300003 0.100003 0.455235
81 1 0.100003 0.300003 0.455235
85 1 0.300003 0.300003 0.455235
101 1 0 0 0.464188
102 1 0.2 0 0.464188
106 1 0 0.2 0.464188
110 1 0.2 0.2 0.464188
78 1 0.500002 0.100003 0.455235
89 1 0.500002 0.300003 0.455235
103 1 0.399999 0 0.464188
104 1 0.599999 0 0.464188
114 1 0.399999 0.2 0.464188
118 1 0.599999 0.2 0.464188
79 1 0.700002 0.100003 0.455235
80 1 0.900001 0.100003 0.455235
93 1 0.700002 0.300003 0.455235
97 1 0.900001 0.300003 0.455235
105 1 0.799998 0 0.464188
122 1 0.799998 0.2 0.464188
82 1 0.100003 0.500002 0.455235
86 1 0.300003 0.500002 0.455235
107 1 0 0.399999 0.464188
108 1 0 0.599999 0.464188
111 1 0.2 0.399999 0.464188
112 1 0.2 0.599999 0.464188
90 1 0.500002 0.500002 0.455235
115 1 0.399999 0.399999 0.464188
116 1 0.399999 0.599999 0.464188
119 1 0.599999 0.399999 0.464188
120 1 0.599999 0.599999 0.464188
94 1 0.700002 0.500002 0.455235
98 1 0.900001 0.500002 0.455235
123 1 0.799998 0.399999 0.464188
124 1 0.799998 0.599999 0.464188
83 1 0.100003 0.700002 0.455235
84 1 0.100003 0.900001 0.455235
87 1 0.300003 0.700002 0.455235
88 1 0.300003 0.900001 0.455235
109 1 0 0.799998 0.464188
113 1 0.2 0.799998 0.464188
91 1 0.500002 0.700002 0.455235
92 1 0.500002 0.900001 0.455235
117 1 0.399999 0.799998 0.464188
121 1 0.599999 0.799998 0.464188
95 1 0.700002 0.700002 0.455235
96 1 0.700002 0.900001 0.455235
99 1 0.900001 0.700002 0.455235
100 1 0.900001 0.900001 0.455235
125 1 0.799998 0.799998 0.464188
126 1 0.296329 0.302504 0.472587
135 1 0.220224 0.21474 0.481753
129 1 0.508439 0.297244 0.473325
138 1 0.404958 0.229539 0.48177
132 1 0.704661 0.301793 0.47215
127 1 0.294084 0.505543 0.472883
136 1 0.209114 0.411854 0.480907
137 1 0.208005 0.609028 0.481309
130 1 0.51478 0.511476 0.473101
140 1 0.393542 0.617653 0.481318
141 1 0.618049 0.388317 0.481498
139 1 0.415851 0.418803 0.481239
133 1 0.708644 0.500385 0.472583
128 1 0.287219 0.701934 0.47253
131 1 0.49245 0.712137 0.472818
143 1 0.605467 0.713287 0.481902
134 1 0.700905 0.698482 0.472373
144 1 0.302082 0.326456 0.489845
153 1 0.259682 0.221593 0.49919
147 1 0.494486 0.330094 0.490721
145 1 0.179662 0.504497 0.490752
148 1 0.53924 0.551444 0.48728
157 1 0.370434 0.503889 0.492923
161 1 0.53183 0.493327 0.498854
142 1 0.715232 0.559306 0.483879
150 1 0.684714 0.408496 0.492108
151 1 0.720491 0.576184 0.496394
146 1 0.283971 0.673971 0.491376
152 1 0.578933 0.691474 0.498258
149 1 0.467171 0.734828 0.489738
162 1 0.294385 0.289724 0.509978
165 1 0.492916 0.27483 0.510004
159 1 0.597807 0.305606 0.500474
168 1 0.695973 0.291305 0.510772
155 1 0.24761 0.586433 0.501163
154 1 0.222924 0.402374 0.500341
163 1 0.281985 0.486453 0.51054
156 1 0.404441 0.356793 0.501116
166 1 0.481167 0.489852 0.510025
170 1 0.660742 0.589492 0.507534
160 1 0.735343 0.431407 0.503908
164 1 0.294891 0.693564 0.510557
158 1 0.392747 0.727699 0.500624
167 1 0.502347 0.679247 0.509446
171 1 0.203053 0.198293 0.518467
180 1 0.100003 0.100003 0.526859
181 1 0.300003 0.100003 0.526859
185 1 0.100003 0.300003 0.526859
189 1 0.300003 0.300003 0.526859
174 1 0.397292 0.185492 0.518339
177 1 0.599136 0.187036 0.518545
182 1 0.500002 0.100003 0.526859
193 1 0.500002 0.300003 0.526859
183 1 0.700002 0.100003 0.526859
184 1 0.900001 0.100003 0.526859
197 1 0.700002 0.300003 0.526859
201 1 0.900001 0.300003 0.526859
172 1 0.1858 0.39413 0.518292
173 1 0.190996 0.605211 0.5185
186 1 0.100003 0.500002 0.526859
190 1 0.300003 0.500002 0.526859
175 1 0.404338 0.389498 0.518717
176 1 0.398357 0.607645 0.518722
178 1 0.602138 0.413724 0.517937
179 1 0.603806 0.607323 0.518383
194 1 0.500002 0.500002 0.526859
169 1 0.799068 0.392408 0.518199
198 1 0.700002 0.500002 0.526859
202 1 0.900001 0.500002 0.526859
187 1 0.100003 0.700002 0.526859
188 1 0.100003 0.900001 0.526859
191 1 0.300003 0.700002 0.526859
192 1 0.300003 0.900001 0.526859
195 1 0.500002 0.700002 0.526859
196 1 0.500002 0.900001 0.526859
199 1 0.700002 0.700002 0.526859
200 1 0.700002 0.900001 0.526859
203 1 0.900001 0.700002 0.526859
204 1 0.900001 0.900001 0.526859
205 1 0 0 0.535812
206 1 0.2 0 0.535812
210 1 0 0.2 0.535812
214 1 0.2 0.2 0.535812
230 1 0.100003 0.100003 0.544765
231 1 0.300003 0.100003 0.544765
235 1 0.100003 0.300003 0.544765
239 1 0.300003 0.300003 0.544765
207 1 0.399999 0 0.535812
208 1 0.599999 0 0.535812
218 1 0.399999 0.2 0.535812
222 1 0.599999 0.2 0.535812
232 1 0.500002 0.100003 0.544765
243 1 0.500002 0.300003 0.544765
209 1 0.799998 0 0.535812
226 1 0.799998 0.2 0.535812
233 1 0.700002 0.100003 0.544765
234 1 0.900001 0.100003 0.544765
247 1 0.700002 0.300003 0.544765
251 1 0.900001 0.300003 0.544765
211 1 0 0.399999 0.535812
212 1 0 0.599999 0.535812
215 1 0.2 0.399999 0.535812
216 1 0.2 0.599999 0.535812
236 1 0.100003 0.500002 0.544765
240 1 0.300003 0.500002 0.544765
219 1 0.399999 0.399999 0.535812
220 1 0.399999 0.599999 0.535812
223 1 0.599999 0.399999 0.535812
224 1 0.599999 0.599999 0.535812
244 1 0.500002 0.500002 0.544765
227 1 0.799998 0.399999 0.535812
228 1 0.799998 0.599999 0.535812
248 1 0.700002 0.500002 0.544765
252 1 0.900001 0.500002 0.544765
213 1 0 0.799998 0.535812
217 1 0.2 0.799998 0.535812
237 1 0.100003 0.700002 0.544765
238 1 0.100003 0.900001 0.544765
241 1 0.300003 0.700002 0.544765
242 1 0.300003 0.900001 0.544765
221 1 0.399999 0.799998 0.535812
225 1 0.599999 0.799998 0.535812
245 1 0.500002 0.700002 0.544765
246 1 0.500002 0.900001 0.544765
229 1 0.799998 0.799998 0.535812
249 1 0.700002 0.700002 0.544765
250 1 0.700002 0.900001 0.544765
253 1 0.900001 0.700002 0.544765
254 1 0.900001 0.900001 0.544765
255 1 0 0 0.553718
256 1 0.2 0 0.553718
260 1 0 0.2 0.553718
264 1 0.2 0.2 0.553718
280 1 0.100003 0.100003 0.562671
281 1 0.300003 0.100003 0.562671
285 1 0.100003 0.300003 0.562671
289 1 0.300003 0.300003 0.562671
257 1 0.399999 0 0.553718
258 1 0.599999 0 0.553718
268 1 0.399999 0.2 0.553718
272 1 0.599999 0.2 0.553718
282 1 0.500002 0.100003 0.562671
293 1 0.500002 0.300003 0.562671
259 1 0.799998 0 0.553718
276 1 0.799998 0.2 0.553718
283 1 0.700002 0.100003 0.562671
284 1 0.900001 0.100003 0.562671
297 1 0.700002 0.300003 0.562671
301 1 0.900001 0.300003 0.562671
261 1 0 0.399999 0.553718
262 1 0 0.599999 0.553718
265 1 0.2 0.399999 0.553718
266 1 0.2 0.599999 0.553718
286 1 0.100003 0.500002 0.562671
290 1 0.300003 0.500002 0.562671
269 1 0.399999 0.399999 0.553718
270 1 0.399999 0.599999 0.553718
273 1 0.599999 0.399999 0.553718
274 1 0.599999 0.599999 0.553718
294 1 0.500002 0.500002 0.562671
277 1 0.799998 0.399999 0.553718
278 1 0.799998 0.599999 0.553718
298 1 0.700002 0.500002 0.562671
302 1 0.900001 0.500002 0.562671
263 1 0 0.799998 0.553718
267 1 0.2 0.799998 0.553718
287 1 0.100003 0.700002 0.562671
288 1 0.100003 0.900001 0.562671
291 1 0.300003 0.700002 0.562671
292 1 0.300003 0.900001 0.562671
271 1 0.399999 0.799998 0.553718
275 1 0.599999 0.799998 0.553718
295 1 0.500002 0.700002 0.562671
296 1 0.500002 0.900001 0.562671
279 1 0.799998 0.799998 0.553718
299 1 0.700002 0.700002 0.562671
300 1 0.700002 0.900001 0.562671
303 1 0.900001 0.700002 0.562671
304 1 0.900001 0.900001 0.562671
ITEM: TIMESTEP
2000
ITEM: NUMBER OF ATOMS
304
ITEM: BOX BOUNDS pp pp pp
0.0000000000000000e+00 1.4778532000000000e+01
0.0000000000000000e+00 1.4778532000000000e+01
-1.0000000000000000e+02 1.3344000000000000e+02
ITEM: ATOMS id type xs ys zs
1 1 0 0 0.428136
2 1 0.2 0 0.428136
6 1 0 0.2 0.428136
10 1 0.2 0.2 0.428136
3 1 0.399999 0 0.428136
4 1 0.599999 0 0.428136
14 1 0.399999 0.2 0.428136
18 1 0.599999 0.2 0.428136
5 1 0.799998 0 0.428136
22 1 0.799998 0.2 0.428136
7 1 0 0.399999 0.428136
8 1 0 0.599999 0.428136
11 1 0.2 0.399999 0.428136
12 1 0.2 0.599999 0.428136
15 1 0.399999 0.399999 0.428136
16 1 0.399999 0.599999 0.428136
19 1 0.599999 0.399999 0.428136
20 1 0.599999 0.599999 0.428136
23 1 0.799998 0.399999 0.428136
24 1 0.799998 0.599999 0.428136
9 1 0 0.799998 0.428136
13 1 0.2 0.799998 0.428136
17 1 0.399999 0.799998 0.428136
21 1 0.599999 0.799998 0.428136
25 1 0.799998 0.799998 0.428136
26 1 0.100003 0.100003 0.437089
27 1 0.300003 0.100003 0.437089
31 1 0.100003 0.300003 0.437089
35 1 0.300003 0.300003 0.437089
51 1 0 0 0.446042
52 1 0.2 0 0.446042
56 1 0 0.2 0.446042
60 1 0.2 0.2 0.446042
28 1 0.500002 0.100003 0.437089
39 1 0.500002 0.300003 0.437089
53 1 0.399999 0 0.446042
54 1 0.599999 0 0.446042
64 1 0.399999 0.2 0.446042
68 1 0.599999 0.2 0.446042
29 1 0.700002 0.100003 0.437089
30 1 0.900001 0.100003 0.437089
43 1 0.700002 0.300003 0.437089
47 1 0.900001 0.300003 0.437089
55 1 0.799998 0 0.446042
72 1 0.799998 0.2 0.446042
32 1 0.100003 0.500002 0.437089
36 1 0.300003 0.500002 0.437089
57 1 0 0.399999 0.446042
58 1 0 0.599999 0.446042
61 1 0.2 0.399999 0.446042
62 1 0.2 0.599999 0.446042
40 1 0.500002 0.500002 0.437089
65 1 0.399999 0.399999 0.446042
66 1 0.399999 0.599999 0.446042
69 1 0.599999 0.399999 0.446042
70 1 0.599999 0.599999 0.446042
44 1 0.700002 0.500002 0.437089
48 1 0.900001 0.500002 0.437089
73 1 0.799998 0.399999 0.446042
74 1 0.799998 0.599999 0.446042
33 1 0.100003 0.700002 0.437089
34 1 0.100003 0.900001 0.437089
37 1 0.300003 0.700002 0.437089
38 1 0.300003 0.900001 0.437089
59 1 0 0.799998 0.446042
63 1 0.2 0.799998 0.446042
41 1 0.500002 0.700002 0.437089
42 1 0.500002 0.900001 0.437089
67 1 0.399999 0.799998 0.446042
71 1 0.599999 0.799998 0.446042
45 1 0.700002 0.700002 0.437089
46 1 0.700002 0.900001 0.437089
49 1 0.900001 0.700002 0.437089
50 1 0.900001 0.900001 0.437089
75 1 0.799998 0.799998 0.446042
76 1 0.100003 0.100003 0.454995
77 1 0.300003 0.100003 0.454995
81 1 0.100003 0.300003 0.454995
85 1 0.300003 0.300003 0.454995
101 1 0 0 0.463948
102 1 0.2 0 0.463948
106 1 0 0.2 0.463948
110 1 0.2 0.2 0.463948
78 1 0.500002 0.100003 0.454995
89 1 0.500002 0.300003 0.454995
103 1 0.399999 0 0.463948
104 1 0.599999 0 0.463948
114 1 0.399999 0.2 0.463948
118 1 0.599999 0.2 0.463948
79 1 0.700002 0.100003 0.454995
80 1 0.900001 0.100003 0.454995
93 1 0.700002 0.300003 0.454995
97 1 0.900001 0.300003 0.454995
105 1 0.799998 0 0.463948
122 1 0.799998 0.2 0.463948
82 1 0.100003 0.500002 0.454995
86 1 0.300003 0.500002 0.454995
107 1 0 0.399999 0.463948
108 1 0 0.599999 0.463948
111 1 0.2 0.399999 0.463948
112 1 0.2 0.599999 0.463948
90 1 0.500002 0.500002 0.454995
115 1 0.399999 0.399999 0.463948
116 1 0.399999 0.599999 0.463948
119 1 0.599999 0.399999 0.463948
120 1 0.599999 0.599999 0.463948
94 1 0.700002 0.500002 0.454995
98 1 0.900001 0.500002 0.454995
123 1 0.799998 0.399999 0.463948
124 1 0.799998 0.599999 0.463948
83 1 0.100003 0.700002 0.454995
84 1 0.100003 0.900001 0.454995
87 1 0.300003 0.700002 0.454995
88 1 0.300003 0.900001 0.454995
109 1 0 0.799998 0.463948
113 1 0.2 0.799998 0.463948
91 1 0.500002 0.700002 0.454995
92 1 0.500002 0.900001 0.454995
117 1 0.399999 0.799998 0.463948
121 1 0.599999 0.799998 0.463948
95 1 0.700002 0.700002 0.454995
96 1 0.700002 0.900001 0.454995
99 1 0.900001 0.700002 0.454995
100 1 0.900001 0.900001 0.454995
125 1 0.799998 0.799998 0.463948
126 1 0.30121 0.300666 0.472233
135 1 0.216623 0.221973 0.481695
129 1 0.497886 0.293722 0.472292
138 1 0.400339 0.237232 0.482389
132 1 0.694511 0.304554 0.471835
127 1 0.302386 0.49493 0.472302
136 1 0.209855 0.404348 0.480833
137 1 0.203137 0.599621 0.480374
130 1 0.507979 0.500086 0.473114
140 1 0.405229 0.615927 0.480625
141 1 0.61573 0.381099 0.481532
139 1 0.414396 0.43151 0.482386
133 1 0.704744 0.499071 0.472396
128 1 0.298204 0.694654 0.472349
131 1 0.49714 0.702518 0.472044
143 1 0.605889 0.701293 0.481811
134 1 0.71539 0.696634 0.472465
144 1 0.300764 0.32674 0.490541
153 1 0.247202 0.217014 0.499532
147 1 0.513856 0.324985 0.490884
145 1 0.176555 0.51227 0.490661
148 1 0.5403 0.556998 0.488772
157 1 0.370969 0.500491 0.49354
161 1 0.536479 0.477057 0.499694
142 1 0.714199 0.548667 0.483461
150 1 0.68657 0.405831 0.492179
151 1 0.704992 0.57259 0.495993
146 1 0.294076 0.673094 0.489739
152 1 0.550755 0.670493 0.498432
149 1 0.464123 0.738323 0.48906
162 1 0.289126 0.303931 0.510211
165 1 0.491624 0.282544 0.510807
159 1 0.60743 0.300628 0.501156
168 1 0.69265 0.297113 0.511508
155 1 0.241727 0.593449 0.500253
154 1 0.22953 0.405751 0.500305
163 1 0.282422 0.496382 0.510102
156 1 0.406331 0.319863 0.500635
166 1 0.482142 0.489145 0.510687
170 1 0.65124 0.599838 0.50759
160 1 0.73843 0.432555 0.504116
164 1 0.286854 0.68812 0.50986
158 1 0.377992 0.718424 0.499702
167 1 0.482406 0.686422 0.509554
171 1 0.188828 0.202494 0.518481
180 1 0.100003 0.100003 0.527099
181 1 0.300003 0.100003 0.527099
185 1 0.100003 0.300003 0.527099
189 1 0.300003 0.300003 0.527099
174 1 0.390562 0.191405 0.51861
177 1 0.599332 0.189458 0.518723
182 1 0.500002 0.100003 0.527099
193 1 0.500002 0.300003 0.527099
183 1 0.700002 0.100003 0.527099
184 1 0.900001 0.100003 0.527099
197 1 0.700002 0.300003 0.527099
201 1 0.900001 0.300003 0.527099
172 1 0.196097 0.398823 0.518811
173 1 0.199647 0.602892 0.518917
186 1 0.100003 0.500002 0.527099
190 1 0.300003 0.500002 0.527099
175 1 0.403346 0.395493 0.518898
176 1 0.398912 0.608761 0.518977
178 1 0.600562 0.414456 0.518339
179 1 0.603674 0.608681 0.518515
194 1 0.500002 0.500002 0.527099
169 1 0.803237 0.396488 0.518781
198 1 0.700002 0.500002 0.527099
202 1 0.900001 0.500002 0.527099
187 1 0.100003 0.700002 0.527099
188 1 0.100003 0.900001 0.527099
191 1 0.300003 0.700002 0.527099
192 1 0.300003 0.900001 0.527099
195 1 0.500002 0.700002 0.527099
196 1 0.500002 0.900001 0.527099
199 1 0.700002 0.700002 0.527099
200 1 0.700002 0.900001 0.527099
203 1 0.900001 0.700002 0.527099
204 1 0.900001 0.900001 0.527099
205 1 0 0 0.536052
206 1 0.2 0 0.536052
210 1 0 0.2 0.536052
214 1 0.2 0.2 0.536052
230 1 0.100003 0.100003 0.545005
231 1 0.300003 0.100003 0.545005
235 1 0.100003 0.300003 0.545005
239 1 0.300003 0.300003 0.545005
207 1 0.399999 0 0.536052
208 1 0.599999 0 0.536052
218 1 0.399999 0.2 0.536052
222 1 0.599999 0.2 0.536052
232 1 0.500002 0.100003 0.545005
243 1 0.500002 0.300003 0.545005
209 1 0.799998 0 0.536052
226 1 0.799998 0.2 0.536052
233 1 0.700002 0.100003 0.545005
234 1 0.900001 0.100003 0.545005
247 1 0.700002 0.300003 0.545005
251 1 0.900001 0.300003 0.545005
211 1 0 0.399999 0.536052
212 1 0 0.599999 0.536052
215 1 0.2 0.399999 0.536052
216 1 0.2 0.599999 0.536052
236 1 0.100003 0.500002 0.545005
240 1 0.300003 0.500002 0.545005
219 1 0.399999 0.399999 0.536052
220 1 0.399999 0.599999 0.536052
223 1 0.599999 0.399999 0.536052
224 1 0.599999 0.599999 0.536052
244 1 0.500002 0.500002 0.545005
227 1 0.799998 0.399999 0.536052
228 1 0.799998 0.599999 0.536052
248 1 0.700002 0.500002 0.545005
252 1 0.900001 0.500002 0.545005
213 1 0 0.799998 0.536052
217 1 0.2 0.799998 0.536052
237 1 0.100003 0.700002 0.545005
238 1 0.100003 0.900001 0.545005
241 1 0.300003 0.700002 0.545005
242 1 0.300003 0.900001 0.545005
221 1 0.399999 0.799998 0.536052
225 1 0.599999 0.799998 0.536052
245 1 0.500002 0.700002 0.545005
246 1 0.500002 0.900001 0.545005
229 1 0.799998 0.799998 0.536052
249 1 0.700002 0.700002 0.545005
250 1 0.700002 0.900001 0.545005
253 1 0.900001 0.700002 0.545005
254 1 0.900001 0.900001 0.545005
255 1 0 0 0.553958
256 1 0.2 0 0.553958
260 1 0 0.2 0.553958
264 1 0.2 0.2 0.553958
280 1 0.100003 0.100003 0.562911
281 1 0.300003 0.100003 0.562911
285 1 0.100003 0.300003 0.562911
289 1 0.300003 0.300003 0.562911
257 1 0.399999 0 0.553958
258 1 0.599999 0 0.553958
268 1 0.399999 0.2 0.553958
272 1 0.599999 0.2 0.553958
282 1 0.500002 0.100003 0.562911
293 1 0.500002 0.300003 0.562911
259 1 0.799998 0 0.553958
276 1 0.799998 0.2 0.553958
283 1 0.700002 0.100003 0.562911
284 1 0.900001 0.100003 0.562911
297 1 0.700002 0.300003 0.562911
301 1 0.900001 0.300003 0.562911
261 1 0 0.399999 0.553958
262 1 0 0.599999 0.553958
265 1 0.2 0.399999 0.553958
266 1 0.2 0.599999 0.553958
286 1 0.100003 0.500002 0.562911
290 1 0.300003 0.500002 0.562911
269 1 0.399999 0.399999 0.553958
270 1 0.399999 0.599999 0.553958
273 1 0.599999 0.399999 0.553958
274 1 0.599999 0.599999 0.553958
294 1 0.500002 0.500002 0.562911
277 1 0.799998 0.399999 0.553958
278 1 0.799998 0.599999 0.553958
298 1 0.700002 0.500002 0.562911
302 1 0.900001 0.500002 0.562911
263 1 0 0.799998 0.553958
267 1 0.2 0.799998 0.553958
287 1 0.100003 0.700002 0.562911
288 1 0.100003 0.900001 0.562911
291 1 0.300003 0.700002 0.562911
292 1 0.300003 0.900001 0.562911
271 1 0.399999 0.799998 0.553958
275 1 0.599999 0.799998 0.553958
295 1 0.500002 0.700002 0.562911
296 1 0.500002 0.900001 0.562911
279 1 0.799998 0.799998 0.553958
299 1 0.700002 0.700002 0.562911
300 1 0.700002 0.900001 0.562911
303 1 0.900001 0.700002 0.562911
304 1 0.900001 0.900001 0.562911
ITEM: TIMESTEP
4000
ITEM: NUMBER OF ATOMS
304
ITEM: BOX BOUNDS pp pp pp
0.0000000000000000e+00 1.4778532000000000e+01
0.0000000000000000e+00 1.4778532000000000e+01
-1.0000000000000000e+02 1.3344000000000000e+02
ITEM: ATOMS id type xs ys zs
1 1 0 0 0.427896
2 1 0.2 0 0.427896
6 1 0 0.2 0.427896
10 1 0.2 0.2 0.427896
3 1 0.399999 0 0.427896
4 1 0.599999 0 0.427896
14 1 0.399999 0.2 0.427896
18 1 0.599999 0.2 0.427896
5 1 0.799998 0 0.427896
22 1 0.799998 0.2 0.427896
7 1 0 0.399999 0.427896
8 1 0 0.599999 0.427896
11 1 0.2 0.399999 0.427896
12 1 0.2 0.599999 0.427896
15 1 0.399999 0.399999 0.427896
16 1 0.399999 0.599999 0.427896
19 1 0.599999 0.399999 0.427896
20 1 0.599999 0.599999 0.427896
23 1 0.799998 0.399999 0.427896
24 1 0.799998 0.599999 0.427896
9 1 0 0.799998 0.427896
13 1 0.2 0.799998 0.427896
17 1 0.399999 0.799998 0.427896
21 1 0.599999 0.799998 0.427896
25 1 0.799998 0.799998 0.427896
26 1 0.100003 0.100003 0.436849
27 1 0.300003 0.100003 0.436849
31 1 0.100003 0.300003 0.436849
35 1 0.300003 0.300003 0.436849
51 1 0 0 0.445802
52 1 0.2 0 0.445802
56 1 0 0.2 0.445802
60 1 0.2 0.2 0.445802
28 1 0.500002 0.100003 0.436849
39 1 0.500002 0.300003 0.436849
53 1 0.399999 0 0.445802
54 1 0.599999 0 0.445802
64 1 0.399999 0.2 0.445802
68 1 0.599999 0.2 0.445802
29 1 0.700002 0.100003 0.436849
30 1 0.900001 0.100003 0.436849
43 1 0.700002 0.300003 0.436849
47 1 0.900001 0.300003 0.436849
55 1 0.799998 0 0.445802
72 1 0.799998 0.2 0.445802
32 1 0.100003 0.500002 0.436849
36 1 0.300003 0.500002 0.436849
57 1 0 0.399999 0.445802
58 1 0 0.599999 0.445802
61 1 0.2 0.399999 0.445802
62 1 0.2 0.599999 0.445802
40 1 0.500002 0.500002 0.436849
65 1 0.399999 0.399999 0.445802
66 1 0.399999 0.599999 0.445802
69 1 0.599999 0.399999 0.445802
70 1 0.599999 0.599999 0.445802
44 1 0.700002 0.500002 0.436849
48 1 0.900001 0.500002 0.436849
73 1 0.799998 0.399999 0.445802
74 1 0.799998 0.599999 0.445802
33 1 0.100003 0.700002 0.436849
34 1 0.100003 0.900001 0.436849
37 1 0.300003 0.700002 0.436849
38 1 0.300003 0.900001 0.436849
59 1 0 0.799998 0.445802
63 1 0.2 0.799998 0.445802
41 1 0.500002 0.700002 0.436849
42 1 0.500002 0.900001 0.436849
67 1 0.399999 0.799998 0.445802
71 1 0.599999 0.799998 0.445802
45 1 0.700002 0.700002 0.436849
46 1 0.700002 0.900001 0.436849
49 1 0.900001 0.700002 0.436849
50 1 0.900001 0.900001 0.436849
75 1 0.799998 0.799998 0.445802
76 1 0.100003 0.100003 0.454755
77 1 0.300003 0.100003 0.454755
81 1 0.100003 0.300003 0.454755
85 1 0.300003 0.300003 0.454755
101 1 0 0 0.463708
102 1 0.2 0 0.463708
106 1 0 0.2 0.463708
110 1 0.2 0.2 0.463708
78 1 0.500002 0.100003 0.454755
89 1 0.500002 0.300003 0.454755
103 1 0.399999 0 0.463708
104 1 0.599999 0 0.463708
114 1 0.399999 0.2 0.463708
118 1 0.599999 0.2 0.463708
79 1 0.700002 0.100003 0.454755
80 1 0.900001 0.100003 0.454755
93 1 0.700002 0.300003 0.454755
97 1 0.900001 0.300003 0.454755
105 1 0.799998 0 0.463708
122 1 0.799998 0.2 0.463708
82 1 0.100003 0.500002 0.454755
86 1 0.300003 0.500002 0.454755
107 1 0 0.399999 0.463708
108 1 0 0.599999 0.463708
111 1 0.2 0.399999 0.463708
112 1 0.2 0.599999 0.463708
90 1 0.500002 0.500002 0.454755
115 1 0.399999 0.399999 0.463708
116 1 0.399999 0.599999 0.463708
119 1 0.599999 0.399999 0.463708
120 1 0.599999 0.599999 0.463708
94 1 0.700002 0.500002 0.454755
98 1 0.900001 0.500002 0.454755
123 1 0.799998 0.399999 0.463708
124 1 0.799998 0.599999 0.463708
83 1 0.100003 0.700002 0.454755
84 1 0.100003 0.900001 0.454755
87 1 0.300003 0.700002 0.454755
88 1 0.300003 0.900001 0.454755
109 1 0 0.799998 0.463708
113 1 0.2 0.799998 0.463708
91 1 0.500002 0.700002 0.454755
92 1 0.500002 0.900001 0.454755
117 1 0.399999 0.799998 0.463708
121 1 0.599999 0.799998 0.463708
95 1 0.700002 0.700002 0.454755
96 1 0.700002 0.900001 0.454755
99 1 0.900001 0.700002 0.454755
100 1 0.900001 0.900001 0.454755
125 1 0.799998 0.799998 0.463708
126 1 0.29734 0.302858 0.471751
135 1 0.218268 0.226515 0.481555
129 1 0.495429 0.299406 0.472315
138 1 0.402296 0.239016 0.481563
132 1 0.704578 0.301438 0.471766
127 1 0.299983 0.496557 0.472343
136 1 0.178539 0.40403 0.480043
137 1 0.212825 0.593997 0.48077
130 1 0.508006 0.508421 0.472542
140 1 0.407177 0.624166 0.480608
141 1 0.611551 0.381409 0.480585
139 1 0.417395 0.430686 0.482095
133 1 0.706774 0.503546 0.472819
128 1 0.295606 0.700609 0.472495
131 1 0.506415 0.712829 0.472839
143 1 0.619367 0.69412 0.482495
134 1 0.700335 0.697087 0.47224
144 1 0.305815 0.310956 0.490559
153 1 0.266786 0.211849 0.500942
147 1 0.510333 0.312441 0.490188
145 1 0.19213 0.488715 0.490554
148 1 0.537883 0.539547 0.487622
157 1 0.383321 0.480788 0.493703
161 1 0.546024 0.474946 0.498857
142 1 0.725979 0.542142 0.48428
150 1 0.684966 0.391464 0.491097
151 1 0.725281 0.579027 0.495678
146 1 0.296872 0.667661 0.490072
152 1 0.574846 0.675937 0.498511
149 1 0.481151 0.734882 0.489353
162 1 0.295094 0.296921 0.510787
165 1 0.508406 0.287954 0.510924
159 1 0.607415 0.289301 0.500362
168 1 0.697816 0.301586 0.510984
155 1 0.250661 0.580971 0.500321
154 1 0.229943 0.393592 0.500409
163 1 0.282006 0.48668 0.510493
156 1 0.415681 0.323487 0.500861
166 1 0.470417 0.476811 0.509429
170 1 0.645996 0.572356 0.507687
160 1 0.736224 0.421317 0.502734
164 1 0.308693 0.667537 0.509844
158 1 0.393871 0.710234 0.499585
167 1 0.495979 0.678772 0.509672
171 1 0.204487 0.200357 0.519142
180 1 0.100003 0.100003 0.527339
181 1 0.300003 0.100003 0.527339
185 1 0.100003 0.300003 0.527339
189 1 0.300003 0.300003 0.527339
174 1 0.40275 0.19209 0.518154
177 1 0.602857 0.202922 0.519488
182 1 0.500002 0.100003 0.527339
193 1 0.500002 0.300003 0.527339
183 1 0.700002 0.100003 0.527339
184 1 0.900001 0.100003 0.527339
197 1 0.700002 0.300003 0.527339
201 1 0.900001 0.300003 0.527339
172 1 0.182879 0.400742 0.518889
173 1 0.20196 0.608134 0.518883
186 1 0.100003 0.500002 0.527339
190 1 0.300003 0.500002 0.527339
175 1 0.397822 0.397805 0.519255
176 1 0.401707 0.603547 0.518706
178 1 0.602833 0.414025 0.518647
179 1 0.60625 0.615702 0.518538
194 1 0.500002 0.500002 0.527339
169 1 0.805708 0.398063 0.519071
198 1 0.700002 0.500002 0.527339
202 1 0.900001 0.500002 0.527339
187 1 0.100003 0.700002 0.527339
188 1 0.100003 0.900001 0.527339
191 1 0.300003 0.700002 0.527339
192 1 0.300003 0.900001 0.527339
195 1 0.500002 0.700002 0.527339
196 1 0.500002 0.900001 0.527339
199 1 0.700002 0.700002 0.527339
200 1 0.700002 0.900001 0.527339
203 1 0.900001 0.700002 0.527339
204 1 0.900001 0.900001 0.527339
205 1 0 0 0.536292
206 1 0.2 0 0.536292
210 1 0 0.2 0.536292
214 1 0.2 0.2 0.536292
230 1 0.100003 0.100003 0.545245
231 1 0.300003 0.100003 0.545245
235 1 0.100003 0.300003 0.545245
239 1 0.300003 0.300003 0.545245
207 1 0.399999 0 0.536292
208 1 0.599999 0 0.536292
218 1 0.399999 0.2 0.536292
222 1 0.599999 0.2 0.536292
232 1 0.500002 0.100003 0.545245
243 1 0.500002 0.300003 0.545245
209 1 0.799998 0 0.536292
226 1 0.799998 0.2 0.536292
233 1 0.700002 0.100003 0.545245
234 1 0.900001 0.100003 0.545245
247 1 0.700002 0.300003 0.545245
251 1 0.900001 0.300003 0.545245
211 1 0 0.399999 0.536292
212 1 0 0.599999 0.536292
215 1 0.2 0.399999 0.536292
216 1 0.2 0.599999 0.536292
236 1 0.100003 0.500002 0.545245
240 1 0.300003 0.500002 0.545245
219 1 0.399999 0.399999 0.536292
220 1 0.399999 0.599999 0.536292
223 1 0.599999 0.399999 0.536292
224 1 0.599999 0.599999 0.536292
244 1 0.500002 0.500002 0.545245
227 1 0.799998 0.399999 0.536292
228 1 0.799998 0.599999 0.536292
248 1 0.700002 0.500002 0.545245
252 1 0.900001 0.500002 0.545245
213 1 0 0.799998 0.536292
217 1 0.2 0.799998 0.536292
237 1 0.100003 0.700002 0.545245
238 1 0.100003 0.900001 0.545245
241 1 0.300003 0.700002 0.545245
242 1 0.300003 0.900001 0.545245
221 1 0.399999 0.799998 0.536292
225 1 0.599999 0.799998 0.536292
245 1 0.500002 0.700002 0.545245
246 1 0.500002 0.900001 0.545245
229 1 0.799998 0.799998 0.536292
249 1 0.700002 0.700002 0.545245
250 1 0.700002 0.900001 0.545245
253 1 0.900001 0.700002 0.545245
254 1 0.900001 0.900001 0.545245
255 1 0 0 0.554198
256 1 0.2 0 0.554198
260 1 0 0.2 0.554198
264 1 0.2 0.2 0.554198
280 1 0.100003 0.100003 0.563151
281 1 0.300003 0.100003 0.563151
285 1 0.100003 0.300003 0.563151
289 1 0.300003 0.300003 0.563151
257 1 0.399999 0 0.554198
258 1 0.599999 0 0.554198
268 1 0.399999 0.2 0.554198
272 1 0.599999 0.2 0.554198
282 1 0.500002 0.100003 0.563151
293 1 0.500002 0.300003 0.563151
259 1 0.799998 0 0.554198
276 1 0.799998 0.2 0.554198
283 1 0.700002 0.100003 0.563151
284 1 0.900001 0.100003 0.563151
297 1 0.700002 0.300003 0.563151
301 1 0.900001 0.300003 0.563151
261 1 0 0.399999 0.554198
262 1 0 0.599999 0.554198
265 1 0.2 0.399999 0.554198
266 1 0.2 0.599999 0.554198
286 1 0.100003 0.500002 0.563151
290 1 0.300003 0.500002 0.563151
269 1 0.399999 0.399999 0.554198
270 1 0.399999 0.599999 0.554198
273 1 0.599999 0.399999 0.554198
274 1 0.599999 0.599999 0.554198
294 1 0.500002 0.500002 0.563151
277 1 0.799998 0.399999 0.554198
278 1 0.799998 0.599999 0.554198
298 1 0.700002 0.500002 0.563151
302 1 0.900001 0.500002 0.563151
263 1 0 0.799998 0.554198
267 1 0.2 0.799998 0.554198
287 1 0.100003 0.700002 0.563151
288 1 0.100003 0.900001 0.563151
291 1 0.300003 0.700002 0.563151
292 1 0.300003 0.900001 0.563151
271 1 0.399999 0.799998 0.554198
275 1 0.599999 0.799998 0.554198
295 1 0.500002 0.700002 0.563151
296 1 0.500002 0.900001 0.563151
279 1 0.799998 0.799998 0.554198
299 1 0.700002 0.700002 0.563151
300 1 0.700002 0.900001 0.563151
303 1 0.900001 0.700002 0.563151
304 1 0.900001 0.900001 0.563151
ITEM: TIMESTEP
6000
ITEM: NUMBER OF ATOMS
304
ITEM: BOX BOUNDS pp pp pp
0.0000000000000000e+00 1.4778532000000000e+01
0.0000000000000000e+00 1.4778532000000000e+01
-1.0000000000000000e+02 1.3344000000000000e+02
ITEM: ATOMS id type xs ys zs
1 1 0 0 0.427656
2 1 0.2 0 0.427656
6 1 0 0.2 0.427656
10 1 0.2 0.2 0.427656
3 1 0.399999 0 0.427656
4 1 0.599999 0 0.427656
14 1 0.399999 0.2 0.427656
18 1 0.599999 0.2 0.427656
5 1 0.799998 0 0.427656
22 1 0.799998 0.2 0.427656
7 1 0 0.399999 0.427656
8 1 0 0.599999 0.427656
11 1 0.2 0.399999 0.427656
12 1 0.2 0.599999 0.427656
15 1 0.399999 0.399999 0.427656
16 1 0.399999 0.599999 0.427656
19 1 0.599999 0.399999 0.427656
20 1 0.599999 0.599999 0.427656
23 1 0.799998 0.399999 0.427656
24 1 0.799998 0.599999 0.427656
9 1 0 0.799998 0.427656
13 1 0.2 0.799998 0.427656
17 1 0.399999 0.799998 0.427656
21 1 0.599999 0.799998 0.427656
25 1 0.799998 0.799998 0.427656
26 1 0.100003 0.100003 0.436609
27 1 0.300003 0.100003 0.436609
31 1 0.100003 0.300003 0.436609
35 1 0.300003 0.300003 0.436609
51 1 0 0 0.445562
52 1 0.2 0 0.445562
56 1 0 0.2 0.445562
60 1 0.2 0.2 0.445562
28 1 0.500002 0.100003 0.436609
39 1 0.500002 0.300003 0.436609
53 1 0.399999 0 0.445562
54 1 0.599999 0 0.445562
64 1 0.399999 0.2 0.445562
68 1 0.599999 0.2 0.445562
29 1 0.700002 0.100003 0.436609
30 1 0.900001 0.100003 0.436609