ITEM: TIMESTEP
0
ITEM: NUMBER OF ATOMS
304
ITEM: BOX BOUNDS pp pp pp
0.0000000000000000e+00 1.4778532000000000e+01
0.0000000000000000e+00 1.4778532000000000e+01
-1.0000000000000000e+02 1.3344000000000000e+02
ITEM: ATOMS id type xs ys zs
1 1 0 0 0.428376
2 1 0.2 0 0.428376
6 1 0 0.2 0.428376
10 1 0.2 0.2 0.428376
3 1 0.399999 0 0.428376
4 1 0.599999 0 0.428376
14 1 0.399999 0.2 0.428376
18 1 0.599999 0.2 0.428376
5 1 0.799998 0 0.428376
22 1 0.799998 0.2 0.428376
7 1 0 0.399999 0.428376
8 1 0 0.599999 0.428376
11 1 0.2 0.399999 0.428376
12 1 0.2 0.599999 0.428376
15 1 0.399999 0.399999 0.428376
16 1 0.399999 0.599999 0.428376
19 1 0.599999 0.399999 0.428376
20 1 0.599999 0.599999 0.428376
23 1 0.799998 0.399999 0.428376
24 1 0.799998 0.599999 0.428376
9 1 0 0.799998 0.428376
13 1 0.2 0.799998 0.428376
17 1 0.399999 0.799998 0.428376
21 1 0.599999 0.799998 0.428376
25 1 0.799998 0.799998 0.428376
26 1 0.100003 0.100003 0.437329
27 1 0.300003 0.100003 0.437329
31 1 0.100003 0.300003 0.437329
35 1 0.300003 0.300003 0.437329
51 1 0 0 0.446282
52 1 0.2 0 0.446282
56 1 0 0.2 0.446282
60 1 0.2 0.2 0.446282
28 1 0.500002 0.100003 0.437329
39 1 0.500002 0.300003 0.437329
53 1 0.399999 0 0.446282
54 1 0.599999 0 0.446282
64 1 0.399999 0.2 0.446282
68 1 0.599999 0.2 0.446282
29 1 0.700002 0.100003 0.437329
30 1 0.900001 0.100003 0.437329
43 1 0.700002 0.300003 0.437329
47 1 0.900001 0.300003 0.437329
55 1 0.799998 0 0.446282
72 1 0.799998 0.2 0.446282
32 1 0.100003 0.500002 0.437329
36 1 0.300003 0.500002 0.437329
57 1 0 0.399999 0.446282
58 1 0 0.599999 0.446282
61 1 0.2 0.399999 0.446282
62 1 0.2 0.599999 0.446282
40 1 0.500002 0.500002 0.437329
65 1 0.399999 0.399999 0.446282
66 1 0.399999 0.599999 0.446282
69 1 0.599999 0.399999 0.446282
70 1 0.599999 0.599999 0.446282
44 1 0.700002 0.500002 0.437329
48 1 0.900001 0.500002 0.437329
73 1 0.799998 0.399999 0.446282
74 1 0.799998 0.599999 0.446282
33 1 0.100003 0.700002 0.437329
34 1 0.100003 0.900001 0.437329
37 1 0.300003 0.700002 0.437329
38 1 0.300003 0.900001 0.437329
59 1 0 0.799998 0.446282
63 1 0.2 0.799998 0.446282
41 1 0.500002 0.700002 0.437329
42 1 0.500002 0.900001 0.437329
67 1 0.399999 0.799998 0.446282
71 1 0.599999 0.799998 0.446282
45 1 0.700002 0.700002 0.437329
46 1 0.700002 0.900001 0.437329
49 1 0.900001 0.700002 0.437329
50 1 0.900001 0.900001 0.437329
75 1 0.799998 0.799998 0.446282
76 1 0.100003 0.100003 0.455235
77 1 0.300003 0.100003 0.455235
81 1 0.100003 0.300003 0.455235
85 1 0.300003 0.300003 0.455235
101 1 0 0 0.464188
102 1 0.2 0 0.464188
106 1 0 0.2 0.464188
110 1 0.2 0.2 0.464188
78 1 0.500002 0.100003 0.455235
89 1 0.500002 0.300003 0.455235
103 1 0.399999 0 0.464188
104 1 0.599999 0 0.464188
114 1 0.399999 0.2 0.464188
118 1 0.599999 0.2 0.464188
79 1 0.700002 0.100003 0.455235
80 1 0.900001 0.100003 0.455235
93 1 0.700002 0.300003 0.455235
97 1 0.900001 0.300003 0.455235
105 1 0.799998 0 0.464188
122 1 0.799998 0.2 0.464188
82 1 0.100003 0.500002 0.455235
86 1 0.300003 0.500002 0.455235
107 1 0 0.399999 0.464188
108 1 0 0.599999 0.464188
111 1 0.2 0.399999 0.464188
112 1 0.2 0.599999 0.464188
90 1 0.500002 0.500002 0.455235
115 1 0.399999 0.399999 0.464188
116 1 0.399999 0.599999 0.464188
119 1 0.599999 0.399999 0.464188
120 1 0.599999 0.599999 0.464188
94 1 0.700002 0.500002 0.455235
98 1 0.900001 0.500002 0.455235
123 1 0.799998 0.399999 0.464188
124 1 0.799998 0.599999 0.464188
83 1 0.100003 0.700002 0.455235
84 1 0.100003 0.900001 0.455235
87 1 0.300003 0.700002 0.455235
88 1 0.300003 0.900001 0.455235
109 1 0 0.799998 0.464188
113 1 0.2 0.799998 0.464188
91 1 0.500002 0.700002 0.455235
92 1 0.500002 0.900001 0.455235
117 1 0.399999 0.799998 0.464188
121 1 0.599999 0.799998 0.464188
95 1 0.700002 0.700002 0.455235
96 1 0.700002 0.900001 0.455235
99 1 0.900001 0.700002 0.455235
100 1 0.900001 0.900001 0.455235
125 1 0.799998 0.799998 0.464188
126 1 0.29619 0.2963 0.472322
135 1 0.204567 0.201712 0.480769
129 1 0.497686 0.296279 0.472476
138 1 0.393221 0.210633 0.481285
141 1 0.588984 0.232027 0.481861
132 1 0.697637 0.299073 0.472631
127 1 0.297295 0.497439 0.472437
136 1 0.212969 0.392093 0.481241
137 1 0.234041 0.588578 0.481848
130 1 0.503175 0.504052 0.472794
139 1 0.407556 0.406418 0.481124
140 1 0.420342 0.617979 0.481161
142 1 0.615751 0.418252 0.481077
143 1 0.61715 0.615824 0.480978
133 1 0.710469 0.502888 0.472651
128 1 0.298729 0.698031 0.472615
131 1 0.504529 0.71118 0.472635
134 1 0.704584 0.703093 0.472312
144 1 0.271898 0.271573 0.490668
147 1 0.467949 0.294427 0.490605
159 1 0.573491 0.243921 0.499917
150 1 0.66041 0.32666 0.491004
145 1 0.292523 0.467554 0.490676
146 1 0.326697 0.659388 0.491052
148 1 0.488671 0.491022 0.490343
151 1 0.679526 0.516504 0.490613
149 1 0.518035 0.680933 0.490673
152 1 0.702831 0.700497 0.490253
153 1 0.198206 0.200662 0.500712
162 1 0.284344 0.283486 0.510186
156 1 0.383729 0.226039 0.500365
165 1 0.48128 0.283203 0.509938
168 1 0.668228 0.312577 0.509123
154 1 0.224788 0.383729 0.5004
155 1 0.243478 0.574238 0.500005
163 1 0.283987 0.481877 0.509988
157 1 0.415813 0.414908 0.500334
158 1 0.434383 0.610646 0.500331
160 1 0.610669 0.433893 0.500287
161 1 0.630588 0.627901 0.50034
166 1 0.495175 0.493135 0.509841
169 1 0.690337 0.505813 0.509877
164 1 0.31271 0.669198 0.509172
167 1 0.507818 0.689024 0.50987
170 1 0.6961 0.694594 0.510382
171 1 0.195844 0.195835 0.518763
180 1 0.100003 0.100003 0.526859
181 1 0.300003 0.100003 0.526859
185 1 0.100003 0.300003 0.526859
189 1 0.300003 0.300003 0.526859
174 1 0.395629 0.189807 0.518439
177 1 0.601195 0.202908 0.518396
182 1 0.500002 0.100003 0.526859
193 1 0.500002 0.300003 0.526859
183 1 0.700002 0.100003 0.526859
184 1 0.900001 0.100003 0.526859
197 1 0.700002 0.300003 0.526859
201 1 0.900001 0.300003 0.526859
172 1 0.190945 0.395819 0.518498
173 1 0.202836 0.602032 0.518427
186 1 0.100003 0.500002 0.526859
190 1 0.300003 0.500002 0.526859
175 1 0.396617 0.39686 0.518284
176 1 0.402568 0.602575 0.518539
178 1 0.603509 0.402357 0.518535
179 1 0.603321 0.603053 0.518781
194 1 0.500002 0.500002 0.526859
198 1 0.700002 0.500002 0.526859
202 1 0.900001 0.500002 0.526859
187 1 0.100003 0.700002 0.526859
188 1 0.100003 0.900001 0.526859
191 1 0.300003 0.700002 0.526859
192 1 0.300003 0.900001 0.526859
195 1 0.500002 0.700002 0.526859
196 1 0.500002 0.900001 0.526859
199 1 0.700002 0.700002 0.526859
200 1 0.700002 0.900001 0.526859
203 1 0.900001 0.700002 0.526859
204 1 0.900001 0.900001 0.526859
205 1 0 0 0.535812
206 1 0.2 0 0.535812
210 1 0 0.2 0.535812
214 1 0.2 0.2 0.535812
230 1 0.100003 0.100003 0.544765
231 1 0.300003 0.100003 0.544765
235 1 0.100003 0.300003 0.544765
239 1 0.300003 0.300003 0.544765
207 1 0.399999 0 0.535812
208 1 0.599999 0 0.535812
218 1 0.399999 0.2 0.535812
222 1 0.599999 0.2 0.535812
232 1 0.500002 0.100003 0.544765
243 1 0.500002 0.300003 0.544765
209 1 0.799998 0 0.535812
226 1 0.799998 0.2 0.535812
233 1 0.700002 0.100003 0.544765
234 1 0.900001 0.100003 0.544765
247 1 0.700002 0.300003 0.544765
251 1 0.900001 0.300003 0.544765
211 1 0 0.399999 0.535812
212 1 0 0.599999 0.535812
215 1 0.2 0.399999 0.535812
216 1 0.2 0.599999 0.535812
236 1 0.100003 0.500002 0.544765
240 1 0.300003 0.500002 0.544765
219 1 0.399999 0.399999 0.535812
220 1 0.399999 0.599999 0.535812
223 1 0.599999 0.399999 0.535812
224 1 0.599999 0.599999 0.535812
244 1 0.500002 0.500002 0.544765
227 1 0.799998 0.399999 0.535812
228 1 0.799998 0.599999 0.535812
248 1 0.700002 0.500002 0.544765
252 1 0.900001 0.500002 0.544765
213 1 0 0.799998 0.535812
217 1 0.2 0.799998 0.535812
237 1 0.100003 0.700002 0.544765
238 1 0.100003 0.900001 0.544765
241 1 0.300003 0.700002 0.544765
242 1 0.300003 0.900001 0.544765
221 1 0.399999 0.799998 0.535812
225 1 0.599999 0.799998 0.535812
245 1 0.500002 0.700002 0.544765
246 1 0.500002 0.900001 0.544765
229 1 0.799998 0.799998 0.535812
249 1 0.700002 0.700002 0.544765
250 1 0.700002 0.900001 0.544765
253 1 0.900001 0.700002 0.544765
254 1 0.900001 0.900001 0.544765
255 1 0 0 0.553718
256 1 0.2 0 0.553718
260 1 0 0.2 0.553718
264 1 0.2 0.2 0.553718
280 1 0.100003 0.100003 0.562671
281 1 0.300003 0.100003 0.562671
285 1 0.100003 0.300003 0.562671
289 1 0.300003 0.300003 0.562671
257 1 0.399999 0 0.553718
258 1 0.599999 0 0.553718
268 1 0.399999 0.2 0.553718
272 1 0.599999 0.2 0.553718
282 1 0.500002 0.100003 0.562671
293 1 0.500002 0.300003 0.562671
259 1 0.799998 0 0.553718
276 1 0.799998 0.2 0.553718
283 1 0.700002 0.100003 0.562671
284 1 0.900001 0.100003 0.562671
297 1 0.700002 0.300003 0.562671
301 1 0.900001 0.300003 0.562671
261 1 0 0.399999 0.553718
262 1 0 0.599999 0.553718
265 1 0.2 0.399999 0.553718
266 1 0.2 0.599999 0.553718
286 1 0.100003 0.500002 0.562671
290 1 0.300003 0.500002 0.562671
269 1 0.399999 0.399999 0.553718
270 1 0.399999 0.599999 0.553718
273 1 0.599999 0.399999 0.553718
274 1 0.599999 0.599999 0.553718
294 1 0.500002 0.500002 0.562671
277 1 0.799998 0.399999 0.553718
278 1 0.799998 0.599999 0.553718
298 1 0.700002 0.500002 0.562671
302 1 0.900001 0.500002 0.562671
263 1 0 0.799998 0.553718
267 1 0.2 0.799998 0.553718
287 1 0.100003 0.700002 0.562671
288 1 0.100003 0.900001 0.562671
291 1 0.300003 0.700002 0.562671
292 1 0.300003 0.900001 0.562671
271 1 0.399999 0.799998 0.553718
275 1 0.599999 0.799998 0.553718
295 1 0.500002 0.700002 0.562671
296 1 0.500002 0.900001 0.562671
279 1 0.799998 0.799998 0.553718
299 1 0.700002 0.700002 0.562671
300 1 0.700002 0.900001 0.562671
303 1 0.900001 0.700002 0.562671
304 1 0.900001 0.900001 0.562671
ITEM: TIMESTEP
2000
ITEM: NUMBER OF ATOMS
304
ITEM: BOX BOUNDS pp pp pp
0.0000000000000000e+00 1.4778532000000000e+01
0.0000000000000000e+00 1.4778532000000000e+01
-1.0000000000000000e+02 1.3344000000000000e+02
ITEM: ATOMS id type xs ys zs
1 1 0 0 0.428016
2 1 0.2 0 0.428016
6 1 0 0.2 0.428016
10 1 0.2 0.2 0.428016
3 1 0.399999 0 0.428016
4 1 0.599999 0 0.428016
14 1 0.399999 0.2 0.428016
18 1 0.599999 0.2 0.428016
5 1 0.799998 0 0.428016
22 1 0.799998 0.2 0.428016
7 1 0 0.399999 0.428016
8 1 0 0.599999 0.428016
11 1 0.2 0.399999 0.428016
12 1 0.2 0.599999 0.428016
15 1 0.399999 0.399999 0.428016
16 1 0.399999 0.599999 0.428016
19 1 0.599999 0.399999 0.428016
20 1 0.599999 0.599999 0.428016
23 1 0.799998 0.399999 0.428016
24 1 0.799998 0.599999 0.428016
9 1 0 0.799998 0.428016
13 1 0.2 0.799998 0.428016
17 1 0.399999 0.799998 0.428016
21 1 0.599999 0.799998 0.428016
25 1 0.799998 0.799998 0.428016
26 1 0.100003 0.100003 0.436969
27 1 0.300003 0.100003 0.436969
31 1 0.100003 0.300003 0.436969
35 1 0.300003 0.300003 0.436969
51 1 0 0 0.445922
52 1 0.2 0 0.445922
56 1 0 0.2 0.445922
60 1 0.2 0.2 0.445922
28 1 0.500002 0.100003 0.436969
39 1 0.500002 0.300003 0.436969
53 1 0.399999 0 0.445922
54 1 0.599999 0 0.445922
64 1 0.399999 0.2 0.445922
68 1 0.599999 0.2 0.445922
29 1 0.700002 0.100003 0.436969
30 1 0.900001 0.100003 0.436969
43 1 0.700002 0.300003 0.436969
47 1 0.900001 0.300003 0.436969
55 1 0.799998 0 0.445922
72 1 0.799998 0.2 0.445922
32 1 0.100003 0.500002 0.436969
36 1 0.300003 0.500002 0.436969
57 1 0 0.399999 0.445922
58 1 0 0.599999 0.445922
61 1 0.2 0.399999 0.445922
62 1 0.2 0.599999 0.445922
40 1 0.500002 0.500002 0.436969
65 1 0.399999 0.399999 0.445922
66 1 0.399999 0.599999 0.445922
69 1 0.599999 0.399999 0.445922
70 1 0.599999 0.599999 0.445922
44 1 0.700002 0.500002 0.436969
48 1 0.900001 0.500002 0.436969
73 1 0.799998 0.399999 0.445922
74 1 0.799998 0.599999 0.445922
33 1 0.100003 0.700002 0.436969
34 1 0.100003 0.900001 0.436969
37 1 0.300003 0.700002 0.436969
38 1 0.300003 0.900001 0.436969
59 1 0 0.799998 0.445922
63 1 0.2 0.799998 0.445922
41 1 0.500002 0.700002 0.436969
42 1 0.500002 0.900001 0.436969
67 1 0.399999 0.799998 0.445922
71 1 0.599999 0.799998 0.445922
45 1 0.700002 0.700002 0.436969
46 1 0.700002 0.900001 0.436969
49 1 0.900001 0.700002 0.436969
50 1 0.900001 0.900001 0.436969
75 1 0.799998 0.799998 0.445922
76 1 0.100003 0.100003 0.454875
77 1 0.300003 0.100003 0.454875
81 1 0.100003 0.300003 0.454875
85 1 0.300003 0.300003 0.454875
101 1 0 0 0.463828
102 1 0.2 0 0.463828
106 1 0 0.2 0.463828
110 1 0.2 0.2 0.463828
78 1 0.500002 0.100003 0.454875
89 1 0.500002 0.300003 0.454875
103 1 0.399999 0 0.463828
104 1 0.599999 0 0.463828
114 1 0.399999 0.2 0.463828
118 1 0.599999 0.2 0.463828
79 1 0.700002 0.100003 0.454875
80 1 0.900001 0.100003 0.454875
93 1 0.700002 0.300003 0.454875
97 1 0.900001 0.300003 0.454875
105 1 0.799998 0 0.463828
122 1 0.799998 0.2 0.463828
82 1 0.100003 0.500002 0.454875
86 1 0.300003 0.500002 0.454875
107 1 0 0.399999 0.463828
108 1 0 0.599999 0.463828
111 1 0.2 0.399999 0.463828
112 1 0.2 0.599999 0.463828
90 1 0.500002 0.500002 0.454875
115 1 0.399999 0.399999 0.463828
116 1 0.399999 0.599999 0.463828
119 1 0.599999 0.399999 0.463828
120 1 0.599999 0.599999 0.463828
94 1 0.700002 0.500002 0.454875
98 1 0.900001 0.500002 0.454875
123 1 0.799998 0.399999 0.463828
124 1 0.799998 0.599999 0.463828
83 1 0.100003 0.700002 0.454875
84 1 0.100003 0.900001 0.454875
87 1 0.300003 0.700002 0.454875
88 1 0.300003 0.900001 0.454875
109 1 0 0.799998 0.463828
113 1 0.2 0.799998 0.463828
91 1 0.500002 0.700002 0.454875
92 1 0.500002 0.900001 0.454875
117 1 0.399999 0.799998 0.463828
121 1 0.599999 0.799998 0.463828
95 1 0.700002 0.700002 0.454875
96 1 0.700002 0.900001 0.454875
99 1 0.900001 0.700002 0.454875
100 1 0.900001 0.900001 0.454875
125 1 0.799998 0.799998 0.463828
126 1 0.297585 0.297791 0.471804
135 1 0.205105 0.205149 0.480156
129 1 0.498014 0.298089 0.472181
138 1 0.393078 0.214895 0.480796
141 1 0.590071 0.238883 0.48164
132 1 0.696761 0.302289 0.472309
127 1 0.296303 0.498596 0.472123
136 1 0.215145 0.393533 0.480899
137 1 0.23941 0.58865 0.481715
130 1 0.504023 0.506576 0.472432
139 1 0.40983 0.409676 0.480825
140 1 0.425416 0.620007 0.481042
142 1 0.617525 0.424693 0.480925
143 1 0.620995 0.620703 0.480892
133 1 0.711005 0.505806 0.472341
128 1 0.299819 0.696904 0.472347
131 1 0.504631 0.710735 0.472288
134 1 0.703018 0.703291 0.471909
144 1 0.268921 0.270197 0.490377
147 1 0.463233 0.290946 0.490418
159 1 0.566572 0.250292 0.499972
150 1 0.651764 0.332966 0.491054
145 1 0.291475 0.464811 0.490508
146 1 0.331892 0.653989 0.491077
148 1 0.48873 0.488302 0.490346
151 1 0.67721 0.521581 0.490726
149 1 0.522573 0.67708 0.490833
152 1 0.705715 0.703627 0.490609
153 1 0.19577 0.198509 0.500621
162 1 0.278237 0.279648 0.510221
156 1 0.378302 0.227544 0.500258
165 1 0.475413 0.282127 0.510141
168 1 0.660712 0.31107 0.509332
154 1 0.225052 0.380419 0.500277
155 1 0.248694 0.569706 0.499992
163 1 0.281706 0.476635 0.509996
157 1 0.414863 0.415708 0.500264
158 1 0.436033 0.612877 0.500578
160 1 0.61155 0.438483 0.500534
161 1 0.631089 0.633341 0.500707
166 1 0.490006 0.491273 0.510063
169 1 0.686552 0.506472 0.51027
164 1 0.311546 0.663093 0.50942
167 1 0.507503 0.687458 0.510299
170 1 0.696368 0.694942 0.511005
171 1 0.19508 0.196913 0.519098
180 1 0.100003 0.100003 0.527219
181 1 0.300003 0.100003 0.527219
185 1 0.100003 0.300003 0.527219
189 1 0.300003 0.300003 0.527219
174 1 0.395106 0.189656 0.518729
177 1 0.598413 0.204516 0.518713
182 1 0.500002 0.100003 0.527219
193 1 0.500002 0.300003 0.527219
183 1 0.700002 0.100003 0.527219
184 1 0.900001 0.100003 0.527219
197 1 0.700002 0.300003 0.527219
201 1 0.900001 0.300003 0.527219
172 1 0.190539 0.395674 0.51875
173 1 0.204543 0.600522 0.518708
186 1 0.100003 0.500002 0.527219
190 1 0.300003 0.500002 0.527219
175 1 0.39492 0.396199 0.518529
176 1 0.402705 0.602573 0.518899
178 1 0.600578 0.402277 0.518877
179 1 0.602495 0.602099 0.519207
194 1 0.500002 0.500002 0.527219
198 1 0.700002 0.500002 0.527219
202 1 0.900001 0.500002 0.527219
187 1 0.100003 0.700002 0.527219
188 1 0.100003 0.900001 0.527219
191 1 0.300003 0.700002 0.527219
192 1 0.300003 0.900001 0.527219
195 1 0.500002 0.700002 0.527219
196 1 0.500002 0.900001 0.527219
199 1 0.700002 0.700002 0.527219
200 1 0.700002 0.900001 0.527219
203 1 0.900001 0.700002 0.527219
204 1 0.900001 0.900001 0.527219
205 1 0 0 0.536172
206 1 0.2 0 0.536172
210 1 0 0.2 0.536172
214 1 0.2 0.2 0.536172
230 1 0.100003 0.100003 0.545125
231 1 0.300003 0.100003 0.545125
235 1 0.100003 0.300003 0.545125
239 1 0.300003 0.300003 0.545125
207 1 0.399999 0 0.536172
208 1 0.599999 0 0.536172
218 1 0.399999 0.2 0.536172
222 1 0.599999 0.2 0.536172
232 1 0.500002 0.100003 0.545125
243 1 0.500002 0.300003 0.545125
209 1 0.799998 0 0.536172
226 1 0.799998 0.2 0.536172
233 1 0.700002 0.100003 0.545125
234 1 0.900001 0.100003 0.545125
247 1 0.700002 0.300003 0.545125
251 1 0.900001 0.300003 0.545125
211 1 0 0.399999 0.536172
212 1 0 0.599999 0.536172
215 1 0.2 0.399999 0.536172
216 1 0.2 0.599999 0.536172
236 1 0.100003 0.500002 0.545125
240 1 0.300003 0.500002 0.545125
219 1 0.399999 0.399999 0.536172
220 1 0.399999 0.599999 0.536172
223 1 0.599999 0.399999 0.536172
224 1 0.599999 0.599999 0.536172
244 1 0.500002 0.500002 0.545125
227 1 0.799998 0.399999 0.536172
228 1 0.799998 0.599999 0.536172
248 1 0.700002 0.500002 0.545125
252 1 0.900001 0.500002 0.545125
213 1 0 0.799998 0.536172
217 1 0.2 0.799998 0.536172
237 1 0.100003 0.700002 0.545125
238 1 0.100003 0.900001 0.545125
241 1 0.300003 0.700002 0.545125
242 1 0.300003 0.900001 0.545125
221 1 0.399999 0.799998 0.536172
225 1 0.599999 0.799998 0.536172
245 1 0.500002 0.700002 0.545125
246 1 0.500002 0.900001 0.545125
229 1 0.799998 0.799998 0.536172
249 1 0.700002 0.700002 0.545125
250 1 0.700002 0.900001 0.545125
253 1 0.900001 0.700002 0.545125
254 1 0.900001 0.900001 0.545125
255 1 0 0 0.554078
256 1 0.2 0 0.554078
260 1 0 0.2 0.554078
264 1 0.2 0.2 0.554078
280 1 0.100003 0.100003 0.563031
281 1 0.300003 0.100003 0.563031
285 1 0.100003 0.300003 0.563031
289 1 0.300003 0.300003 0.563031
257 1 0.399999 0 0.554078
258 1 0.599999 0 0.554078
268 1 0.399999 0.2 0.554078
272 1 0.599999 0.2 0.554078
282 1 0.500002 0.100003 0.563031
293 1 0.500002 0.300003 0.563031
259 1 0.799998 0 0.554078
276 1 0.799998 0.2 0.554078
283 1 0.700002 0.100003 0.563031
284 1 0.900001 0.100003 0.563031
297 1 0.700002 0.300003 0.563031
301 1 0.900001 0.300003 0.563031
261 1 0 0.399999 0.554078
262 1 0 0.599999 0.554078
265 1 0.2 0.399999 0.554078
266 1 0.2 0.599999 0.554078
286 1 0.100003 0.500002 0.563031
290 1 0.300003 0.500002 0.563031
269 1 0.399999 0.399999 0.554078
270 1 0.399999 0.599999 0.554078
273 1 0.599999 0.399999 0.554078
274 1 0.599999 0.599999 0.554078
294 1 0.500002 0.500002 0.563031
277 1 0.799998 0.399999 0.554078
278 1 0.799998 0.599999 0.554078
298 1 0.700002 0.500002 0.563031
302 1 0.900001 0.500002 0.563031
263 1 0 0.799998 0.554078
267 1 0.2 0.799998 0.554078
287 1 0.100003 0.700002 0.563031
288 1 0.100003 0.900001 0.563031
291 1 0.300003 0.700002 0.563031
292 1 0.300003 0.900001 0.563031
271 1 0.399999 0.799998 0.554078
275 1 0.599999 0.799998 0.554078
295 1 0.500002 0.700002 0.563031
296 1 0.500002 0.900001 0.563031
279 1 0.799998 0.799998 0.554078
299 1 0.700002 0.700002 0.563031
300 1 0.700002 0.900001 0.563031
303 1 0.900001 0.700002 0.563031
304 1 0.900001 0.900001 0.563031
ITEM: TIMESTEP
4000
ITEM: NUMBER OF ATOMS
304
ITEM: BOX BOUNDS pp pp pp
0.0000000000000000e+00 1.4778532000000000e+01
0.0000000000000000e+00 1.4778532000000000e+01
-1.0000000000000000e+02 1.3344000000000000e+02
ITEM: ATOMS id type xs ys zs
1 1 0 0 0.427656
2 1 0.2 0 0.427656
6 1 0 0.2 0.427656
10 1 0.2 0.2 0.427656
3 1 0.399999 0 0.427656
4 1 0.599999 0 0.427656
14 1 0.399999 0.2 0.427656
18 1 0.599999 0.2 0.427656
5 1 0.799998 0 0.427656
22 1 0.799998 0.2 0.427656
7 1 0 0.399999 0.427656
8 1 0 0.599999 0.427656
11 1 0.2 0.399999 0.427656
12 1 0.2 0.599999 0.427656
15 1 0.399999 0.399999 0.427656
16 1 0.399999 0.599999 0.427656
19 1 0.599999 0.399999 0.427656
20 1 0.599999 0.599999 0.427656
23 1 0.799998 0.399999 0.427656
24 1 0.799998 0.599999 0.427656
9 1 0 0.799998 0.427656
13 1 0.2 0.799998 0.427656
17 1 0.399999 0.799998 0.427656
21 1 0.599999 0.799998 0.427656
25 1 0.799998 0.799998 0.427656
26 1 0.100003 0.100003 0.436609
27 1 0.300003 0.100003 0.436609
31 1 0.100003 0.300003 0.436609
35 1 0.300003 0.300003 0.436609
51 1 0 0 0.445562
52 1 0.2 0 0.445562
56 1 0 0.2 0.445562
60 1 0.2 0.2 0.445562
28 1 0.500002 0.100003 0.436609
39 1 0.500002 0.300003 0.436609
53 1 0.399999 0 0.445562
54 1 0.599999 0 0.445562
64 1 0.399999 0.2 0.445562
68 1 0.599999 0.2 0.445562
29 1 0.700002 0.100003 0.436609
30 1 0.900001 0.100003 0.436609
43 1 0.700002 0.300003 0.436609
47 1 0.900001 0.300003 0.436609
55 1 0.799998 0 0.445562
72 1 0.799998 0.2 0.445562
32 1 0.100003 0.500002 0.436609
36 1 0.300003 0.500002 0.436609
57 1 0 0.399999 0.445562
58 1 0 0.599999 0.445562
61 1 0.2 0.399999 0.445562
62 1 0.2 0.599999 0.445562
40 1 0.500002 0.500002 0.436609
65 1 0.399999 0.399999 0.445562
66 1 0.399999 0.599999 0.445562
69 1 0.599999 0.399999 0.445562
70 1 0.599999 0.599999 0.445562
44 1 0.700002 0.500002 0.436609
48 1 0.900001 0.500002 0.436609
73 1 0.799998 0.399999 0.445562
74 1 0.799998 0.599999 0.445562
33 1 0.100003 0.700002 0.436609
34 1 0.100003 0.900001 0.436609
37 1 0.300003 0.700002 0.436609
38 1 0.300003 0.900001 0.436609
59 1 0 0.799998 0.445562
63 1 0.2 0.799998 0.445562
41 1 0.500002 0.700002 0.436609
42 1 0.500002 0.900001 0.436609
67 1 0.399999 0.799998 0.445562
71 1 0.599999 0.799998 0.445562
45 1 0.700002 0.700002 0.436609
46 1 0.700002 0.900001 0.436609
49 1 0.900001 0.700002 0.436609
50 1 0.900001 0.900001 0.436609
75 1 0.799998 0.799998 0.445562
76 1 0.100003 0.100003 0.454515
77 1 0.300003 0.100003 0.454515
81 1 0.100003 0.300003 0.454515
85 1 0.300003 0.300003 0.454515
101 1 0 0 0.463468
102 1 0.2 0 0.463468
106 1 0 0.2 0.463468
110 1 0.2 0.2 0.463468
78 1 0.500002 0.100003 0.454515
89 1 0.500002 0.300003 0.454515
103 1 0.399999 0 0.463468
104 1 0.599999 0 0.463468
114 1 0.399999 0.2 0.463468
118 1 0.599999 0.2 0.463468
79 1 0.700002 0.100003 0.454515
80 1 0.900001 0.100003 0.454515
93 1 0.700002 0.300003 0.454515
97 1 0.900001 0.300003 0.454515
105 1 0.799998 0 0.463468
122 1 0.799998 0.2 0.463468
82 1 0.100003 0.500002 0.454515
86 1 0.300003 0.500002 0.454515
107 1 0 0.399999 0.463468
108 1 0 0.599999 0.463468
111 1 0.2 0.399999 0.463468
112 1 0.2 0.599999 0.463468
90 1 0.500002 0.500002 0.454515
115 1 0.399999 0.399999 0.463468
116 1 0.399999 0.599999 0.463468
119 1 0.599999 0.399999 0.463468
120 1 0.599999 0.599999 0.463468
94 1 0.700002 0.500002 0.454515
98 1 0.900001 0.500002 0.454515
123 1 0.799998 0.399999 0.463468
124 1 0.799998 0.599999 0.463468
83 1 0.100003 0.700002 0.454515
84 1 0.100003 0.900001 0.454515
87 1 0.300003 0.700002 0.454515
88 1 0.300003 0.900001 0.454515
109 1 0 0.799998 0.463468
113 1 0.2 0.799998 0.463468
91 1 0.500002 0.700002 0.454515
92 1 0.500002 0.900001 0.454515
117 1 0.399999 0.799998 0.463468
121 1 0.599999 0.799998 0.463468
95 1 0.700002 0.700002 0.454515
96 1 0.700002 0.900001 0.454515
99 1 0.900001 0.700002 0.454515
100 1 0.900001 0.900001 0.454515
125 1 0.799998 0.799998 0.463468
126 1 0.296488 0.296711 0.471556
135 1 0.207433 0.206724 0.480258
129 1 0.497189 0.298313 0.471796
138 1 0.395115 0.215107 0.48066
141 1 0.587456 0.238818 0.481366
132 1 0.695158 0.300854 0.47201
127 1 0.297242 0.498286 0.471793
136 1 0.215894 0.395269 0.480634
137 1 0.241007 0.589056 0.481398
130 1 0.504322 0.503698 0.47216
139 1 0.409213 0.40987 0.480618
140 1 0.425899 0.619533 0.480707
142 1 0.618817 0.42365 0.4807
143 1 0.622009 0.620696 0.480601
133 1 0.70989 0.503647 0.472011
128 1 0.301208 0.696331 0.472004
131 1 0.504779 0.709988 0.471925
134 1 0.703543 0.703251 0.471553
144 1 0.270802 0.271066 0.49048
147 1 0.462989 0.29052 0.490483
159 1 0.569492 0.251679 0.500222
150 1 0.649611 0.33055 0.490829
145 1 0.288419 0.464448 0.49045
146 1 0.334485 0.650771 0.490879
148 1 0.486302 0.486967 0.490161
151 1 0.675439 0.520402 0.490431
149 1 0.521457 0.674719 0.490608
152 1 0.702386 0.702564 0.490634
153 1 0.199889 0.199821 0.500615
162 1 0.280274 0.280388 0.510582
156 1 0.382006 0.231262 0.500598
165 1 0.477353 0.283448 0.510456
168 1 0.663481 0.311593 0.509735
154 1 0.232724 0.380738 0.500509
155 1 0.253967 0.568963 0.500129
163 1 0.283721 0.476383 0.510434
157 1 0.420961 0.41977 0.500285
158 1 0.436664 0.617486 0.500595
160 1 0.618344 0.435341 0.500473
161 1 0.630255 0.628427 0.50062
166 1 0.488687 0.488228 0.510368
169 1 0.683707 0.505771 0.510413
164 1 0.312209 0.661097 0.509676
167 1 0.506636 0.682716 0.510514
170 1 0.694867 0.691584 0.510839
171 1 0.197456 0.196184 0.519504
180 1 0.100003 0.100003 0.527579
181 1 0.300003 0.100003 0.527579
185 1 0.100003 0.300003 0.527579
189 1 0.300003 0.300003 0.527579
174 1 0.39632 0.190389 0.519109
177 1 0.599542 0.203978 0.519034
182 1 0.500002 0.100003 0.527579
193 1 0.500002 0.300003 0.527579
183 1 0.700002 0.100003 0.527579
184 1 0.900001 0.100003 0.527579
197 1 0.700002 0.300003 0.527579
201 1 0.900001 0.300003 0.527579
172 1 0.189245 0.39557 0.519095
173 1 0.203444 0.600598 0.519053
186 1 0.100003 0.500002 0.527579
190 1 0.300003 0.500002 0.527579
175 1 0.394787 0.395265 0.518945
176 1 0.402608 0.601643 0.519239
178 1 0.600581 0.402429 0.519216
179 1 0.603754 0.602904 0.519494
194 1 0.500002 0.500002 0.527579
198 1 0.700002 0.500002 0.527579
202 1 0.900001 0.500002 0.527579
187 1 0.100003 0.700002 0.527579
188 1 0.100003 0.900001 0.527579
191 1 0.300003 0.700002 0.527579
192 1 0.300003 0.900001 0.527579
195 1 0.500002 0.700002 0.527579
196 1 0.500002 0.900001 0.527579
199 1 0.700002 0.700002 0.527579
200 1 0.700002 0.900001 0.527579
203 1 0.900001 0.700002 0.527579
204 1 0.900001 0.900001 0.527579
205 1 0 0 0.536532
206 1 0.2 0 0.536532
210 1 0 0.2 0.536532
214 1 0.2 0.2 0.536532
230 1 0.100003 0.100003 0.545485
231 1 0.300003 0.100003 0.545485
235 1 0.100003 0.300003 0.545485
239 1 0.300003 0.300003 0.545485
207 1 0.399999 0 0.536532
208 1 0.599999 0 0.536532
218 1 0.399999 0.2 0.536532
222 1 0.599999 0.2 0.536532
232 1 0.500002 0.100003 0.545485
243 1 0.500002 0.300003 0.545485
209 1 0.799998 0 0.536532
226 1 0.799998 0.2 0.536532
233 1 0.700002 0.100003 0.545485
234 1 0.900001 0.100003 0.545485
247 1 0.700002 0.300003 0.545485
251 1 0.900001 0.300003 0.545485
211 1 0 0.399999 0.536532
212 1 0 0.599999 0.536532
215 1 0.2 0.399999 0.536532
216 1 0.2 0.599999 0.536532
236 1 0.100003 0.500002 0.545485
240 1 0.300003 0.500002 0.545485
219 1 0.399999 0.399999 0.536532
220 1 0.399999 0.599999 0.536532
223 1 0.599999 0.399999 0.536532
224 1 0.599999 0.599999 0.536532
244 1 0.500002 0.500002 0.545485
227 1 0.799998 0.399999 0.536532
228 1 0.799998 0.599999 0.536532
248 1 0.700002 0.500002 0.545485
252 1 0.900001 0.500002 0.545485
213 1 0 0.799998 0.536532
217 1 0.2 0.799998 0.536532
237 1 0.100003 0.700002 0.545485
238 1 0.100003 0.900001 0.545485
241 1 0.300003 0.700002 0.545485
242 1 0.300003 0.900001 0.545485
221 1 0.399999 0.799998 0.536532
225 1 0.599999 0.799998 0.536532
245 1 0.500002 0.700002 0.545485
246 1 0.500002 0.900001 0.545485
229 1 0.799998 0.799998 0.536532
249 1 0.700002 0.700002 0.545485
250 1 0.700002 0.900001 0.545485
253 1 0.900001 0.700002 0.545485
254 1 0.900001 0.900001 0.545485
255 1 0 0 0.554438
256 1 0.2 0 0.554438
260 1 0 0.2 0.554438
264 1 0.2 0.2 0.554438
280 1 0.100003 0.100003 0.563391
281 1 0.300003 0.100003 0.563391
285 1 0.100003 0.300003 0.563391
289 1 0.300003 0.300003 0.563391
257 1 0.399999 0 0.554438
258 1 0.599999 0 0.554438
268 1 0.399999 0.2 0.554438
272 1 0.599999 0.2 0.554438
282 1 0.500002 0.100003 0.563391
293 1 0.500002 0.300003 0.563391
259 1 0.799998 0 0.554438
276 1 0.799998 0.2 0.554438
283 1 0.700002 0.100003 0.563391
284 1 0.900001 0.100003 0.563391
297 1 0.700002 0.300003 0.563391
301 1 0.900001 0.300003 0.563391
261 1 0 0.399999 0.554438
262 1 0 0.599999 0.554438
265 1 0.2 0.399999 0.554438
266 1 0.2 0.599999 0.554438
286 1 0.100003 0.500002 0.563391
290 1 0.300003 0.500002 0.563391
269 1 0.399999 0.399999 0.554438
270 1 0.399999 0.599999 0.554438
273 1 0.599999 0.399999 0.554438
274 1 0.599999 0.599999 0.554438
294 1 0.500002 0.500002 0.563391
277 1 0.799998 0.399999 0.554438
278 1 0.799998 0.599999 0.554438
298 1 0.700002 0.500002 0.563391
302 1 0.900001 0.500002 0.563391
263 1 0 0.799998 0.554438
267 1 0.2 0.799998 0.554438
287 1 0.100003 0.700002 0.563391
288 1 0.100003 0.900001 0.563391
291 1 0.300003 0.700002 0.563391
292 1 0.300003 0.900001 0.563391
271 1 0.399999 0.799998 0.554438
275 1 0.599999 0.799998 0.554438
295 1 0.500002 0.700002 0.563391
296 1 0.500002 0.900001 0.563391
279 1 0.799998 0.799998 0.554438
299 1 0.700002 0.700002 0.563391
300 1 0.700002 0.900001 0.563391
303 1 0.900001 0.700002 0.563391
304 1 0.900001 0.900001 0.563391
ITEM: TIMESTEP
6000
ITEM: NUMBER OF ATOMS
304
ITEM: BOX BOUNDS pp pp pp
0.0000000000000000e+00 1.4778532000000000e+01
0.0000000000000000e+00 1.4778532000000000e+01
-1.0000000000000000e+02 1.3344000000000000e+02
ITEM: ATOMS id type xs ys zs
1 1 0 0 0.427296
2 1 0.2 0 0.427296
6 1 0 0.2 0.427296
10 1 0.2 0.2 0.427296
3 1 0.399999 0 0.427296
4 1 0.599999 0 0.427296
14 1 0.399999 0.2 0.427296
18 1 0.599999 0.2 0.427296
5 1 0.799998 0 0.427296
22 1 0.799998 0.2 0.427296
7 1 0 0.399999 0.427296
8 1 0 0.599999 0.427296
11 1 0.2 0.399999 0.427296
12 1 0.2 0.599999 0.427296
15 1 0.399999 0.399999 0.427296
16 1 0.399999 0.599999 0.427296
19 1 0.599999 0.399999 0.427296
20 1 0.599999 0.599999 0.427296
23 1 0.799998 0.399999 0.427296
24 1 0.799998 0.599999 0.427296
9 1 0 0.799998 0.427296
13 1 0.2 0.799998 0.427296
17 1 0.399999 0.799998 0.427296
21 1 0.599999 0.799998 0.427296
25 1 0.799998 0.799998 0.427296
26 1 0.100003 0.100003 0.436249
27 1 0.300003 0.100003 0.436249
31 1 0.100003 0.300003 0.436249
35 1 0.300003 0.300003 0.436249
51 1 0 0 0.445202
52 1 0.2 0 0.445202
56 1 0 0.2 0.445202
60 1 0.2 0.2 0.445202
28 1 0.500002 0.100003 0.436249
39 1 0.500002 0.300003 0.436249
53 1 0.399999 0 0.445202
54 1 0.599999 0 0.445202
64 1 0.399999 0.2 0.445202
68 1 0.599999 0.2 0.445202
29 1 0.700002 0.100003 0.436249
30 1 0.900001 0.100003 0.436249