LAMMPS data file. msi2lmp v3.9.9 / 05 Nov 2018 / CGCMM for Au100_tran

 340   atoms

   1 atom types

    0.000000000    14.778532 xlo xhi
    0.000000000    14.778532 ylo yhi
  -100.000000000   133.44 zlo zhi

Masses

   1 196.967000


Atoms # full

1    1    0.000000000   0.000000000   0.000000000
2    1    2.955699921   0.000000000   0.000000000
3    1    5.911399841   0.000000000   0.000000000
4    1    8.867099762   0.000000000   0.000000000
5    1    11.822799683   0.000000000   0.000000000
6    1    0.000000000   2.955699921   0.000000000
7    1    0.000000000   5.911399841   0.000000000
8    1    0.000000000   8.867099762   0.000000000
9    1    0.000000000   11.822799683   0.000000000
10    1    2.955699921   2.955699921   0.000000000
11    1    2.955699921   5.911399841   0.000000000
12    1    2.955699921   8.867099762   0.000000000
13    1    2.955699921   11.822799683   0.000000000
14    1    5.911399841   2.955699921   0.000000000
15    1    5.911399841   5.911399841   0.000000000
16    1    5.911399841   8.867099762   0.000000000
17    1    5.911399841   11.822799683   0.000000000
18    1    8.867099762   2.955699921   0.000000000
19    1    8.867099762   5.911399841   0.000000000
20    1    8.867099762   8.867099762   0.000000000
21    1    8.867099762   11.822799683   0.000000000
22    1    11.822799683   2.955699921   0.000000000
23    1    11.822799683   5.911399841   0.000000000
24    1    11.822799683   8.867099762   0.000000000
25    1    11.822799683   11.822799683   0.000000000
26    1    1.477900028   1.477900028   2.089999914
27    1    4.433599949   1.477900028   2.089999914
28    1    7.389299870   1.477900028   2.089999914
29    1    10.345000267   1.477900028   2.089999914
30    1    13.300700188   1.477900028   2.089999914
31    1    1.477900028   4.433599949   2.089999914
32    1    1.477900028   7.389299870   2.089999914
33    1    1.477900028   10.345000267   2.089999914
34    1    1.477900028   13.300700188   2.089999914
35    1    4.433599949   4.433599949   2.089999914
36    1    4.433599949   7.389299870   2.089999914
37    1    4.433599949   10.345000267   2.089999914
38    1    4.433599949   13.300700188   2.089999914
39    1    7.389299870   4.433599949   2.089999914
40    1    7.389299870   7.389299870   2.089999914
41    1    7.389299870   10.345000267   2.089999914
42    1    7.389299870   13.300700188   2.089999914
43    1    10.345000267   4.433599949   2.089999914
44    1    10.345000267   7.389299870   2.089999914
45    1    10.345000267   10.345000267   2.089999914
46    1    10.345000267   13.300700188   2.089999914
47    1    13.300700188   4.433599949   2.089999914
48    1    13.300700188   7.389299870   2.089999914
49    1    13.300700188   10.345000267   2.089999914
50    1    13.300700188   13.300700188   2.089999914
51    1    0.000000000   0.000000000   4.179999828
52    1    2.955699921   0.000000000   4.179999828
53    1    5.911399841   0.000000000   4.179999828
54    1    8.867099762   0.000000000   4.179999828
55    1    11.822799683   0.000000000   4.179999828
56    1    0.000000000   2.955699921   4.179999828
57    1    0.000000000   5.911399841   4.179999828
58    1    0.000000000   8.867099762   4.179999828
59    1    0.000000000   11.822799683   4.179999828
60    1    2.955699921   2.955699921   4.179999828
61    1    2.955699921   5.911399841   4.179999828
62    1    2.955699921   8.867099762   4.179999828
63    1    2.955699921   11.822799683   4.179999828
64    1    5.911399841   2.955699921   4.179999828
65    1    5.911399841   5.911399841   4.179999828
66    1    5.911399841   8.867099762   4.179999828
67    1    5.911399841   11.822799683   4.179999828
68    1    8.867099762   2.955699921   4.179999828
69    1    8.867099762   5.911399841   4.179999828
70    1    8.867099762   8.867099762   4.179999828
71    1    8.867099762   11.822799683   4.179999828
72    1    11.822799683   2.955699921   4.179999828
73    1    11.822799683   5.911399841   4.179999828
74    1    11.822799683   8.867099762   4.179999828
75    1    11.822799683   11.822799683   4.179999828
76    1    1.477900028   1.477900028   6.269999981
77    1    4.433599949   1.477900028   6.269999981
78    1    7.389299870   1.477900028   6.269999981
79    1    10.345000267   1.477900028   6.269999981
80    1    13.300700188   1.477900028   6.269999981
81    1    1.477900028   4.433599949   6.269999981
82    1    1.477900028   7.389299870   6.269999981
83    1    1.477900028   10.345000267   6.269999981
84    1    1.477900028   13.300700188   6.269999981
85    1    4.433599949   4.433599949   6.269999981
86    1    4.433599949   7.389299870   6.269999981
87    1    4.433599949   10.345000267   6.269999981
88    1    4.433599949   13.300700188   6.269999981
89    1    7.389299870   4.433599949   6.269999981
90    1    7.389299870   7.389299870   6.269999981
91    1    7.389299870   10.345000267   6.269999981
92    1    7.389299870   13.300700188   6.269999981
93    1    10.345000267   4.433599949   6.269999981
94    1    10.345000267   7.389299870   6.269999981
95    1    10.345000267   10.345000267   6.269999981
96    1    10.345000267   13.300700188   6.269999981
97    1    13.300700188   4.433599949   6.269999981
98    1    13.300700188   7.389299870   6.269999981
99    1    13.300700188   10.345000267   6.269999981
100    1    13.300700188   13.300700188   6.269999981
101    1    0.000000000   0.000000000   8.359999657
102    1    2.955699921   0.000000000   8.359999657
103    1    5.911399841   0.000000000   8.359999657
104    1    8.867099762   0.000000000   8.359999657
105    1    11.822799683   0.000000000   8.359999657
106    1    0.000000000   2.955699921   8.359999657
107    1    0.000000000   5.911399841   8.359999657
108    1    0.000000000   8.867099762   8.359999657
109    1    0.000000000   11.822799683   8.359999657
110    1    2.955699921   2.955699921   8.359999657
111    1    2.955699921   5.911399841   8.359999657
112    1    2.955699921   8.867099762   8.359999657
113    1    2.955699921   11.822799683   8.359999657
114    1    5.911399841   2.955699921   8.359999657
115    1    5.911399841   5.911399841   8.359999657
116    1    5.911399841   8.867099762   8.359999657
117    1    5.911399841   11.822799683   8.359999657
118    1    8.867099762   2.955699921   8.359999657
119    1    8.867099762   5.911399841   8.359999657
120    1    8.867099762   8.867099762   8.359999657
121    1    8.867099762   11.822799683   8.359999657
122    1    11.822799683   2.955699921   8.359999657
123    1    11.822799683   5.911399841   8.359999657
124    1    11.822799683   8.867099762   8.359999657
125    1    11.822799683   11.822799683   8.359999657
126    1    4.433599949    4.433599949    10.449999570
127    1    4.433599949    7.389299870    10.449999570
128    1    4.433599949    10.345000267    10.449999570
129    1    7.389299870    4.433599949    10.449999570
130    1    7.389299870    7.389299870    10.449999570
131    1    7.389299870    10.345000267    10.449999570
132    1    10.345000267    4.433599949    10.449999570
133    1    10.345000267    7.389299870    10.449999570
134    1    10.345000267    10.345000267    10.449999570
135    1    2.955699921    2.955699921    12.539999484
136    1    2.955699921    5.911399841    12.539999484
137    1    2.955699921    8.867099762    12.539999484
138    1    5.911399841    2.955699921    12.539999484
139    1    5.911399841    5.911399841    12.539999484
140    1    5.911399841    8.867099762    12.539999484
141    1    8.867099762    2.955699921    12.539999484
142    1    8.867099762    5.911399841    12.539999484
143    1    8.867099762    8.867099762    12.539999484
144    1    4.433599949    4.433599949    14.629999398
145    1    4.433599949    7.389299870    14.629999398
146    1    4.433599949    10.345000267    14.629999398
147    1    7.389299870    4.433599949    14.629999398
148    1    7.389299870    7.389299870    14.629999398
149    1    7.389299870    10.345000267    14.629999398
150    1    10.345000267    4.433599949    14.629999398
151    1    10.345000267    7.389299870    14.629999398
152    1    10.345000267    10.345000267    14.629999398
153    1    2.955699921    2.955699921    16.719999312
154    1    2.955699921    5.911399841    16.719999312
155    1    2.955699921    8.867099762    16.719999312
156    1    5.911399841    2.955699921    16.719999312
157    1    5.911399841    5.911399841    16.719999312
158    1    5.911399841    8.867099762    16.719999312
159    1    8.867099762    2.955699921    16.719999312
160    1    8.867099762    5.911399841    16.719999312
161    1    8.867099762    8.867099762    16.719999312
162    1    4.433599949    4.433599949    18.809999226
163    1    4.433599949    7.389299870    18.809999226
164    1    4.433599949    10.345000267    18.809999226
165    1    7.389299870    4.433599949    18.809999226
166    1    7.389299870    7.389299870    18.809999226
167    1    7.389299870    10.345000267    18.809999226
168    1    10.345000267    4.433599949    18.809999226
169    1    10.345000267    7.389299870    18.809999226
170    1    10.345000267    10.345000267    18.809999226
171    1    2.955699921    2.955699921    20.899999140
172    1    2.955699921    5.911399841    20.899999140
173    1    2.955699921    8.867099762    20.899999140
174    1    5.911399841    2.955699921    20.899999140
175    1    5.911399841    5.911399841    20.899999140
176    1    5.911399841    8.867099762    20.899999140
177    1    8.867099762    2.955699921    20.899999140
178    1    8.867099762    5.911399841    20.899999140
179    1    8.867099762    8.867099762    20.899999140
180    1    4.433599949    4.433599949    22.989999054
181    1    4.433599949    7.389299870    22.989999054
182    1    4.433599949    10.345000267    22.989999054
183    1    7.389299870    4.433599949    22.989999054
184    1    7.389299870    7.389299870    22.989999054
185    1    7.389299870    10.345000267    22.989999054
186    1    10.345000267    4.433599949    22.989999054
187    1    10.345000267    7.389299870    22.989999054
188    1    10.345000267    10.345000267    22.989999054
189    1    2.955699921    2.955699921    25.079998968
190    1    2.955699921    5.911399841    25.079998968
191    1    2.955699921    8.867099762    25.079998968
192    1    5.911399841    2.955699921    25.079998968
193    1    5.911399841    5.911399841    25.079998968
194    1    5.911399841    8.867099762    25.079998968
195    1    8.867099762    2.955699921    25.079998968
196    1    8.867099762    5.911399841    25.079998968
197    1    8.867099762    8.867099762    25.079998968
198    1    4.433599949    4.433599949    27.169998882
199    1    4.433599949    7.389299870    27.169998882
200    1    4.433599949    10.345000267    27.169998882
201    1    7.389299870    4.433599949    27.169998882
202    1    7.389299870    7.389299870    27.169998882
203    1    7.389299870    10.345000267    27.169998882
204    1    10.345000267    4.433599949    27.169998882
205    1    10.345000267    7.389299870    27.169998882
206    1    10.345000267    10.345000267    27.169998882
207    1    2.955699921    2.955699921    29.259998796
208    1    2.955699921    5.911399841    29.259998796
209    1    2.955699921    8.867099762    29.259998796
210    1    5.911399841    2.955699921    29.259998796
211    1    5.911399841    5.911399841    29.259998796
212    1    5.911399841    8.867099762    29.259998796
213    1    8.867099762    2.955699921    29.259998796
214    1    8.867099762    5.911399841    29.259998796
215    1    8.867099762    8.867099762    29.259998796
216   1     1.477900028    1.477900028    31.349999427
217   1     4.433599949    1.477900028    31.349999427
218   1     7.389299870    1.477900028    31.349999427
219   1     10.345000267    1.477900028    31.349999427
220   1     13.300700188    1.477900028    31.349999427
221   1     1.477900028    4.433599949    31.349999427
222   1     1.477900028    7.389299870    31.349999427
223   1     1.477900028    10.345000267    31.349999427
224   1     1.477900028    13.300700188    31.349999427
225   1     4.433599949    4.433599949    31.349999427
226   1     4.433599949    7.389299870    31.349999427
227   1     4.433599949    10.345000267    31.349999427
228   1     4.433599949    13.300700188    31.349999427
229   1     7.389299870    4.433599949    31.349999427
230   1     7.389299870    7.389299870    31.349999427
231   1     7.389299870    10.345000267    31.349999427
232   1     7.389299870    13.300700188    31.349999427
233   1     10.345000267    4.433599949    31.349999427
234   1     10.345000267    7.389299870    31.349999427
235   1     10.345000267    10.345000267    31.349999427
236   1     10.345000267    13.300700188    31.349999427
237   1     13.300700188    4.433599949    31.349999427
238   1     13.300700188    7.389299870    31.349999427
239   1     13.300700188    10.345000267    31.349999427
240   1     13.300700188    13.300700188    31.349999427
241   1     0.000000000    0.000000000    33.439999580
242   1     2.955699921    0.000000000    33.439999580
243   1     5.911399841    0.000000000    33.439999580
244   1     8.867099762    0.000000000    33.439999580
245   1     11.822799683    0.000000000    33.439999580
246   1     0.000000000    2.955699921    33.439999580
247   1     0.000000000    5.911399841    33.439999580
248   1     0.000000000    8.867099762    33.439999580
249   1     0.000000000    11.822799683    33.439999580
250   1     2.955699921    2.955699921    33.439999580
251   1     2.955699921    5.911399841    33.439999580
252   1     2.955699921    8.867099762    33.439999580
253   1     2.955699921    11.822799683    33.439999580
254   1     5.911399841    2.955699921    33.439999580
255   1     5.911399841    5.911399841    33.439999580
256   1     5.911399841    8.867099762    33.439999580
257   1     5.911399841    11.822799683    33.439999580
258   1     8.867099762    2.955699921    33.439999580
259   1     8.867099762    5.911399841    33.439999580
260   1     8.867099762    8.867099762    33.439999580
261   1     8.867099762    11.822799683    33.439999580
262   1     11.822799683    2.955699921    33.439999580
263   1     11.822799683    5.911399841    33.439999580
264   1     11.822799683    8.867099762    33.439999580
265   1     11.822799683    11.822799683    33.439999580
266   1     1.477900028    1.477900028    35.529999732
267   1     4.433599949    1.477900028    35.529999732
268   1     7.389299870    1.477900028    35.529999732
269   1     10.345000267    1.477900028    35.529999732
270   1     13.300700188    1.477900028    35.529999732
271   1     1.477900028    4.433599949    35.529999732
272   1     1.477900028    7.389299870    35.529999732
273   1     1.477900028    10.345000267    35.529999732
274   1     1.477900028    13.300700188    35.529999732
275   1     4.433599949    4.433599949    35.529999732
276   1     4.433599949    7.389299870    35.529999732
277   1     4.433599949    10.345000267    35.529999732
278   1     4.433599949    13.300700188    35.529999732
279   1     7.389299870    4.433599949    35.529999732
280   1     7.389299870    7.389299870    35.529999732
281   1     7.389299870    10.345000267    35.529999732
282   1     7.389299870    13.300700188    35.529999732
283   1     10.345000267    4.433599949    35.529999732
284   1     10.345000267    7.389299870    35.529999732
285   1     10.345000267    10.345000267    35.529999732
286   1     10.345000267    13.300700188    35.529999732
287   1     13.300700188    4.433599949    35.529999732
288   1     13.300700188    7.389299870    35.529999732
289   1     13.300700188    10.345000267    35.529999732
290   1     13.300700188    13.300700188    35.529999732
291   1     0.000000000    0.000000000    37.619999885
292   1     2.955699921    0.000000000    37.619999885
293   1     5.911399841    0.000000000    37.619999885
294   1     8.867099762    0.000000000    37.619999885
295   1     11.822799683    0.000000000    37.619999885
296   1     0.000000000    2.955699921    37.619999885
297   1     0.000000000    5.911399841    37.619999885
298   1     0.000000000    8.867099762    37.619999885
299   1     0.000000000    11.822799683    37.619999885
300   1     2.955699921    2.955699921    37.619999885
301   1     2.955699921    5.911399841    37.619999885
302   1     2.955699921    8.867099762    37.619999885
303   1     2.955699921    11.822799683    37.619999885
304   1     5.911399841    2.955699921    37.619999885
305   1     5.911399841    5.911399841    37.619999885
306   1     5.911399841    8.867099762    37.619999885
307   1     5.911399841    11.822799683    37.619999885
308   1     8.867099762    2.955699921    37.619999885
309   1     8.867099762    5.911399841    37.619999885
310   1     8.867099762    8.867099762    37.619999885
311   1     8.867099762    11.822799683    37.619999885
312   1     11.822799683    2.955699921    37.619999885
313   1     11.822799683    5.911399841    37.619999885
314   1     11.822799683    8.867099762    37.619999885
315   1     11.822799683    11.822799683    37.619999885
316   1     1.477900028    1.477900028    39.710000037
317   1     4.433599949    1.477900028    39.710000037
318   1     7.389299870    1.477900028    39.710000037
319   1     10.345000267    1.477900028    39.710000037
320   1     13.300700188    1.477900028    39.710000037
321   1     1.477900028    4.433599949    39.710000037
322   1     1.477900028    7.389299870    39.710000037
323   1     1.477900028    10.345000267    39.710000037
324   1     1.477900028    13.300700188    39.710000037
325   1     4.433599949    4.433599949    39.710000037
326   1     4.433599949    7.389299870    39.710000037
327   1     4.433599949    10.345000267    39.710000037
328   1     4.433599949    13.300700188    39.710000037
329   1     7.389299870    4.433599949    39.710000037
330   1     7.389299870    7.389299870    39.710000037
331   1     7.389299870    10.345000267    39.710000037
332   1     7.389299870    13.300700188    39.710000037
333   1     10.345000267    4.433599949    39.710000037
334   1     10.345000267    7.389299870    39.710000037
335   1     10.345000267    10.345000267    39.710000037
336   1     10.345000267    13.300700188    39.710000037
337   1     13.300700188    4.433599949    39.710000037
338   1     13.300700188    7.389299870    39.710000037
339   1     13.300700188    10.345000267    39.710000037
340   1     13.300700188    13.300700188    39.710000037
