ITEM: TIMESTEP
0
ITEM: NUMBER OF ATOMS
304
ITEM: BOX BOUNDS pp pp pp
0.0000000000000000e+00 1.4778532000000000e+01
0.0000000000000000e+00 1.4778532000000000e+01
-1.0000000000000000e+02 1.3344000000000000e+02
ITEM: ATOMS id type xs ys zs
1 1 0 0 0.428376
2 1 0.2 0 0.428376
6 1 0 0.2 0.428376
10 1 0.2 0.2 0.428376
3 1 0.399999 0 0.428376
4 1 0.599999 0 0.428376
14 1 0.399999 0.2 0.428376
18 1 0.599999 0.2 0.428376
5 1 0.799998 0 0.428376
22 1 0.799998 0.2 0.428376
7 1 0 0.399999 0.428376
8 1 0 0.599999 0.428376
11 1 0.2 0.399999 0.428376
12 1 0.2 0.599999 0.428376
15 1 0.399999 0.399999 0.428376
16 1 0.399999 0.599999 0.428376
19 1 0.599999 0.399999 0.428376
20 1 0.599999 0.599999 0.428376
23 1 0.799998 0.399999 0.428376
24 1 0.799998 0.599999 0.428376
9 1 0 0.799998 0.428376
13 1 0.2 0.799998 0.428376
17 1 0.399999 0.799998 0.428376
21 1 0.599999 0.799998 0.428376
25 1 0.799998 0.799998 0.428376
26 1 0.100003 0.100003 0.437329
27 1 0.300003 0.100003 0.437329
31 1 0.100003 0.300003 0.437329
35 1 0.300003 0.300003 0.437329
51 1 0 0 0.446282
52 1 0.2 0 0.446282
56 1 0 0.2 0.446282
60 1 0.2 0.2 0.446282
28 1 0.500002 0.100003 0.437329
39 1 0.500002 0.300003 0.437329
53 1 0.399999 0 0.446282
54 1 0.599999 0 0.446282
64 1 0.399999 0.2 0.446282
68 1 0.599999 0.2 0.446282
29 1 0.700002 0.100003 0.437329
30 1 0.900001 0.100003 0.437329
43 1 0.700002 0.300003 0.437329
47 1 0.900001 0.300003 0.437329
55 1 0.799998 0 0.446282
72 1 0.799998 0.2 0.446282
32 1 0.100003 0.500002 0.437329
36 1 0.300003 0.500002 0.437329
57 1 0 0.399999 0.446282
58 1 0 0.599999 0.446282
61 1 0.2 0.399999 0.446282
62 1 0.2 0.599999 0.446282
40 1 0.500002 0.500002 0.437329
65 1 0.399999 0.399999 0.446282
66 1 0.399999 0.599999 0.446282
69 1 0.599999 0.399999 0.446282
70 1 0.599999 0.599999 0.446282
44 1 0.700002 0.500002 0.437329
48 1 0.900001 0.500002 0.437329
73 1 0.799998 0.399999 0.446282
74 1 0.799998 0.599999 0.446282
33 1 0.100003 0.700002 0.437329
34 1 0.100003 0.900001 0.437329
37 1 0.300003 0.700002 0.437329
38 1 0.300003 0.900001 0.437329
59 1 0 0.799998 0.446282
63 1 0.2 0.799998 0.446282
41 1 0.500002 0.700002 0.437329
42 1 0.500002 0.900001 0.437329
67 1 0.399999 0.799998 0.446282
71 1 0.599999 0.799998 0.446282
45 1 0.700002 0.700002 0.437329
46 1 0.700002 0.900001 0.437329
49 1 0.900001 0.700002 0.437329
50 1 0.900001 0.900001 0.437329
75 1 0.799998 0.799998 0.446282
76 1 0.100003 0.100003 0.455235
77 1 0.300003 0.100003 0.455235
81 1 0.100003 0.300003 0.455235
85 1 0.300003 0.300003 0.455235
101 1 0 0 0.464188
102 1 0.2 0 0.464188
106 1 0 0.2 0.464188
110 1 0.2 0.2 0.464188
78 1 0.500002 0.100003 0.455235
89 1 0.500002 0.300003 0.455235
103 1 0.399999 0 0.464188
104 1 0.599999 0 0.464188
114 1 0.399999 0.2 0.464188
118 1 0.599999 0.2 0.464188
79 1 0.700002 0.100003 0.455235
80 1 0.900001 0.100003 0.455235
93 1 0.700002 0.300003 0.455235
97 1 0.900001 0.300003 0.455235
105 1 0.799998 0 0.464188
122 1 0.799998 0.2 0.464188
82 1 0.100003 0.500002 0.455235
86 1 0.300003 0.500002 0.455235
107 1 0 0.399999 0.464188
108 1 0 0.599999 0.464188
111 1 0.2 0.399999 0.464188
112 1 0.2 0.599999 0.464188
90 1 0.500002 0.500002 0.455235
115 1 0.399999 0.399999 0.464188
116 1 0.399999 0.599999 0.464188
119 1 0.599999 0.399999 0.464188
120 1 0.599999 0.599999 0.464188
94 1 0.700002 0.500002 0.455235
98 1 0.900001 0.500002 0.455235
123 1 0.799998 0.399999 0.464188
124 1 0.799998 0.599999 0.464188
83 1 0.100003 0.700002 0.455235
84 1 0.100003 0.900001 0.455235
87 1 0.300003 0.700002 0.455235
88 1 0.300003 0.900001 0.455235
109 1 0 0.799998 0.464188
113 1 0.2 0.799998 0.464188
91 1 0.500002 0.700002 0.455235
92 1 0.500002 0.900001 0.455235
117 1 0.399999 0.799998 0.464188
121 1 0.599999 0.799998 0.464188
95 1 0.700002 0.700002 0.455235
96 1 0.700002 0.900001 0.455235
99 1 0.900001 0.700002 0.455235
100 1 0.900001 0.900001 0.455235
125 1 0.799998 0.799998 0.464188
126 1 0.29778 0.288695 0.473398
136 1 0.0939202 0.295296 0.472519
129 1 0.500309 0.307165 0.472492
138 1 0.411432 0.20801 0.480962
141 1 0.605806 0.212241 0.480225
132 1 0.710037 0.303044 0.472455
127 1 0.295823 0.484236 0.47297
137 1 0.084574 0.497359 0.472777
146 1 0.195194 0.606392 0.480418
145 1 0.109877 0.395487 0.482179
130 1 0.49901 0.498828 0.473136
139 1 0.408719 0.403892 0.482535
140 1 0.391167 0.612983 0.480149
142 1 0.611747 0.399734 0.481056
143 1 0.606439 0.607866 0.480814
133 1 0.709339 0.494698 0.472343
128 1 0.29488 0.715383 0.472635
131 1 0.503645 0.711658 0.473151
134 1 0.698986 0.697558 0.472305
135 1 0.256188 0.288092 0.484977
154 1 0.237271 0.245764 0.498007
153 1 0.342283 0.148081 0.490729
147 1 0.52603 0.194733 0.490714
150 1 0.678696 0.307108 0.490119
155 1 0.123721 0.375446 0.49377
148 1 0.322946 0.403738 0.493263
158 1 0.110182 0.549562 0.489784
149 1 0.296493 0.593567 0.490234
164 1 0.212642 0.520696 0.499367
144 1 0.510001 0.382928 0.493752
152 1 0.484828 0.569109 0.489634
161 1 0.583311 0.545668 0.49989
151 1 0.671857 0.503211 0.489795
160 1 0.717652 0.403732 0.499844
162 1 0.296587 0.255415 0.509616
156 1 0.421823 0.194645 0.500604
159 1 0.607708 0.238898 0.500613
165 1 0.502053 0.258381 0.510541
168 1 0.69179 0.306333 0.510216
163 1 0.162832 0.367449 0.505608
176 1 0.287534 0.518174 0.509878
157 1 0.401474 0.390184 0.50447
166 1 0.489156 0.541229 0.510428
167 1 0.395033 0.566096 0.500185
169 1 0.681614 0.500929 0.509442
171 1 0.195987 0.197365 0.518668
180 1 0.100003 0.100003 0.526859
181 1 0.300003 0.100003 0.526859
185 1 0.100003 0.300003 0.526859
189 1 0.300003 0.300003 0.526859
174 1 0.398844 0.192787 0.519014
177 1 0.615533 0.202957 0.51877
182 1 0.500002 0.100003 0.526859
193 1 0.500002 0.300003 0.526859
183 1 0.700002 0.100003 0.526859
184 1 0.900001 0.100003 0.526859
197 1 0.700002 0.300003 0.526859
201 1 0.900001 0.300003 0.526859
173 1 0.19441 0.600732 0.518872
172 1 0.194892 0.394301 0.517574
186 1 0.100003 0.500002 0.526859
190 1 0.300003 0.500002 0.526859
170 1 0.39366 0.614333 0.518736
175 1 0.393316 0.394234 0.517246
178 1 0.598349 0.399766 0.518734
179 1 0.607254 0.596997 0.518719
194 1 0.500002 0.500002 0.526859
198 1 0.700002 0.500002 0.526859
202 1 0.900001 0.500002 0.526859
187 1 0.100003 0.700002 0.526859
188 1 0.100003 0.900001 0.526859
191 1 0.300003 0.700002 0.526859
192 1 0.300003 0.900001 0.526859
195 1 0.500002 0.700002 0.526859
196 1 0.500002 0.900001 0.526859
199 1 0.700002 0.700002 0.526859
200 1 0.700002 0.900001 0.526859
203 1 0.900001 0.700002 0.526859
204 1 0.900001 0.900001 0.526859
205 1 0 0 0.535812
206 1 0.2 0 0.535812
210 1 0 0.2 0.535812
214 1 0.2 0.2 0.535812
230 1 0.100003 0.100003 0.544765
231 1 0.300003 0.100003 0.544765
235 1 0.100003 0.300003 0.544765
239 1 0.300003 0.300003 0.544765
207 1 0.399999 0 0.535812
208 1 0.599999 0 0.535812
218 1 0.399999 0.2 0.535812
222 1 0.599999 0.2 0.535812
232 1 0.500002 0.100003 0.544765
243 1 0.500002 0.300003 0.544765
209 1 0.799998 0 0.535812
226 1 0.799998 0.2 0.535812
233 1 0.700002 0.100003 0.544765
234 1 0.900001 0.100003 0.544765
247 1 0.700002 0.300003 0.544765
251 1 0.900001 0.300003 0.544765
211 1 0 0.399999 0.535812
212 1 0 0.599999 0.535812
215 1 0.2 0.399999 0.535812
216 1 0.2 0.599999 0.535812
236 1 0.100003 0.500002 0.544765
240 1 0.300003 0.500002 0.544765
219 1 0.399999 0.399999 0.535812
220 1 0.399999 0.599999 0.535812
223 1 0.599999 0.399999 0.535812
224 1 0.599999 0.599999 0.535812
244 1 0.500002 0.500002 0.544765
227 1 0.799998 0.399999 0.535812
228 1 0.799998 0.599999 0.535812
248 1 0.700002 0.500002 0.544765
252 1 0.900001 0.500002 0.544765
213 1 0 0.799998 0.535812
217 1 0.2 0.799998 0.535812
237 1 0.100003 0.700002 0.544765
238 1 0.100003 0.900001 0.544765
241 1 0.300003 0.700002 0.544765
242 1 0.300003 0.900001 0.544765
221 1 0.399999 0.799998 0.535812
225 1 0.599999 0.799998 0.535812
245 1 0.500002 0.700002 0.544765
246 1 0.500002 0.900001 0.544765
229 1 0.799998 0.799998 0.535812
249 1 0.700002 0.700002 0.544765
250 1 0.700002 0.900001 0.544765
253 1 0.900001 0.700002 0.544765
254 1 0.900001 0.900001 0.544765
255 1 0 0 0.553718
256 1 0.2 0 0.553718
260 1 0 0.2 0.553718
264 1 0.2 0.2 0.553718
280 1 0.100003 0.100003 0.562671
281 1 0.300003 0.100003 0.562671
285 1 0.100003 0.300003 0.562671
289 1 0.300003 0.300003 0.562671
257 1 0.399999 0 0.553718
258 1 0.599999 0 0.553718
268 1 0.399999 0.2 0.553718
272 1 0.599999 0.2 0.553718
282 1 0.500002 0.100003 0.562671
293 1 0.500002 0.300003 0.562671
259 1 0.799998 0 0.553718
276 1 0.799998 0.2 0.553718
283 1 0.700002 0.100003 0.562671
284 1 0.900001 0.100003 0.562671
297 1 0.700002 0.300003 0.562671
301 1 0.900001 0.300003 0.562671
261 1 0 0.399999 0.553718
262 1 0 0.599999 0.553718
265 1 0.2 0.399999 0.553718
266 1 0.2 0.599999 0.553718
286 1 0.100003 0.500002 0.562671
290 1 0.300003 0.500002 0.562671
269 1 0.399999 0.399999 0.553718
270 1 0.399999 0.599999 0.553718
273 1 0.599999 0.399999 0.553718
274 1 0.599999 0.599999 0.553718
294 1 0.500002 0.500002 0.562671
277 1 0.799998 0.399999 0.553718
278 1 0.799998 0.599999 0.553718
298 1 0.700002 0.500002 0.562671
302 1 0.900001 0.500002 0.562671
263 1 0 0.799998 0.553718
267 1 0.2 0.799998 0.553718
287 1 0.100003 0.700002 0.562671
288 1 0.100003 0.900001 0.562671
291 1 0.300003 0.700002 0.562671
292 1 0.300003 0.900001 0.562671
271 1 0.399999 0.799998 0.553718
275 1 0.599999 0.799998 0.553718
295 1 0.500002 0.700002 0.562671
296 1 0.500002 0.900001 0.562671
279 1 0.799998 0.799998 0.553718
299 1 0.700002 0.700002 0.562671
300 1 0.700002 0.900001 0.562671
303 1 0.900001 0.700002 0.562671
304 1 0.900001 0.900001 0.562671
ITEM: TIMESTEP
2000
ITEM: NUMBER OF ATOMS
304
ITEM: BOX BOUNDS pp pp pp
0.0000000000000000e+00 1.4778532000000000e+01
0.0000000000000000e+00 1.4778532000000000e+01
-1.0000000000000000e+02 1.3344000000000000e+02
ITEM: ATOMS id type xs ys zs
1 1 0 0 0.428136
2 1 0.2 0 0.428136
6 1 0 0.2 0.428136
10 1 0.2 0.2 0.428136
3 1 0.399999 0 0.428136
4 1 0.599999 0 0.428136
14 1 0.399999 0.2 0.428136
18 1 0.599999 0.2 0.428136
5 1 0.799998 0 0.428136
22 1 0.799998 0.2 0.428136
7 1 0 0.399999 0.428136
8 1 0 0.599999 0.428136
11 1 0.2 0.399999 0.428136
12 1 0.2 0.599999 0.428136
15 1 0.399999 0.399999 0.428136
16 1 0.399999 0.599999 0.428136
19 1 0.599999 0.399999 0.428136
20 1 0.599999 0.599999 0.428136
23 1 0.799998 0.399999 0.428136
24 1 0.799998 0.599999 0.428136
9 1 0 0.799998 0.428136
13 1 0.2 0.799998 0.428136
17 1 0.399999 0.799998 0.428136
21 1 0.599999 0.799998 0.428136
25 1 0.799998 0.799998 0.428136
26 1 0.100003 0.100003 0.437089
27 1 0.300003 0.100003 0.437089
31 1 0.100003 0.300003 0.437089
35 1 0.300003 0.300003 0.437089
51 1 0 0 0.446042
52 1 0.2 0 0.446042
56 1 0 0.2 0.446042
60 1 0.2 0.2 0.446042
28 1 0.500002 0.100003 0.437089
39 1 0.500002 0.300003 0.437089
53 1 0.399999 0 0.446042
54 1 0.599999 0 0.446042
64 1 0.399999 0.2 0.446042
68 1 0.599999 0.2 0.446042
29 1 0.700002 0.100003 0.437089
30 1 0.900001 0.100003 0.437089
43 1 0.700002 0.300003 0.437089
47 1 0.900001 0.300003 0.437089
55 1 0.799998 0 0.446042
72 1 0.799998 0.2 0.446042
32 1 0.100003 0.500002 0.437089
36 1 0.300003 0.500002 0.437089
57 1 0 0.399999 0.446042
58 1 0 0.599999 0.446042
61 1 0.2 0.399999 0.446042
62 1 0.2 0.599999 0.446042
40 1 0.500002 0.500002 0.437089
65 1 0.399999 0.399999 0.446042
66 1 0.399999 0.599999 0.446042
69 1 0.599999 0.399999 0.446042
70 1 0.599999 0.599999 0.446042
44 1 0.700002 0.500002 0.437089
48 1 0.900001 0.500002 0.437089
73 1 0.799998 0.399999 0.446042
74 1 0.799998 0.599999 0.446042
33 1 0.100003 0.700002 0.437089
34 1 0.100003 0.900001 0.437089
37 1 0.300003 0.700002 0.437089
38 1 0.300003 0.900001 0.437089
59 1 0 0.799998 0.446042
63 1 0.2 0.799998 0.446042
41 1 0.500002 0.700002 0.437089
42 1 0.500002 0.900001 0.437089
67 1 0.399999 0.799998 0.446042
71 1 0.599999 0.799998 0.446042
45 1 0.700002 0.700002 0.437089
46 1 0.700002 0.900001 0.437089
49 1 0.900001 0.700002 0.437089
50 1 0.900001 0.900001 0.437089
75 1 0.799998 0.799998 0.446042
76 1 0.100003 0.100003 0.454995
77 1 0.300003 0.100003 0.454995
81 1 0.100003 0.300003 0.454995
85 1 0.300003 0.300003 0.454995
101 1 0 0 0.463948
102 1 0.2 0 0.463948
106 1 0 0.2 0.463948
110 1 0.2 0.2 0.463948
78 1 0.500002 0.100003 0.454995
89 1 0.500002 0.300003 0.454995
103 1 0.399999 0 0.463948
104 1 0.599999 0 0.463948
114 1 0.399999 0.2 0.463948
118 1 0.599999 0.2 0.463948
79 1 0.700002 0.100003 0.454995
80 1 0.900001 0.100003 0.454995
93 1 0.700002 0.300003 0.454995
97 1 0.900001 0.300003 0.454995
105 1 0.799998 0 0.463948
122 1 0.799998 0.2 0.463948
82 1 0.100003 0.500002 0.454995
86 1 0.300003 0.500002 0.454995
107 1 0 0.399999 0.463948
108 1 0 0.599999 0.463948
111 1 0.2 0.399999 0.463948
112 1 0.2 0.599999 0.463948
90 1 0.500002 0.500002 0.454995
115 1 0.399999 0.399999 0.463948
116 1 0.399999 0.599999 0.463948
119 1 0.599999 0.399999 0.463948
120 1 0.599999 0.599999 0.463948
94 1 0.700002 0.500002 0.454995
98 1 0.900001 0.500002 0.454995
123 1 0.799998 0.399999 0.463948
124 1 0.799998 0.599999 0.463948
83 1 0.100003 0.700002 0.454995
84 1 0.100003 0.900001 0.454995
87 1 0.300003 0.700002 0.454995
88 1 0.300003 0.900001 0.454995
109 1 0 0.799998 0.463948
113 1 0.2 0.799998 0.463948
91 1 0.500002 0.700002 0.454995
92 1 0.500002 0.900001 0.454995
117 1 0.399999 0.799998 0.463948
121 1 0.599999 0.799998 0.463948
95 1 0.700002 0.700002 0.454995
96 1 0.700002 0.900001 0.454995
99 1 0.900001 0.700002 0.454995
100 1 0.900001 0.900001 0.454995
125 1 0.799998 0.799998 0.463948
126 1 0.298967 0.287045 0.473323
136 1 0.108226 0.309757 0.472442
129 1 0.497831 0.295086 0.47227
138 1 0.416877 0.202088 0.481032
141 1 0.611061 0.197977 0.480117
132 1 0.706038 0.298998 0.472432
127 1 0.295174 0.486602 0.472824
137 1 0.101412 0.507349 0.472286
146 1 0.205395 0.60392 0.480074
145 1 0.136675 0.419761 0.48201
130 1 0.492114 0.500708 0.472892
139 1 0.403829 0.399397 0.481249
140 1 0.399105 0.624319 0.480972
142 1 0.604335 0.395492 0.480458
143 1 0.601396 0.595593 0.480963
133 1 0.698472 0.49919 0.472738
128 1 0.301669 0.704474 0.471874
131 1 0.498469 0.699682 0.47258
134 1 0.691451 0.693231 0.472148
135 1 0.247223 0.272675 0.485432
154 1 0.261431 0.246568 0.497667
153 1 0.324554 0.127329 0.490047
147 1 0.524066 0.15687 0.490301
150 1 0.665302 0.295922 0.489935
155 1 0.147335 0.388151 0.494131
148 1 0.325998 0.418096 0.491727
158 1 0.117903 0.555351 0.489396
149 1 0.292319 0.612316 0.490692
164 1 0.200836 0.543025 0.50013
144 1 0.501842 0.355836 0.494312
152 1 0.475178 0.53232 0.489349
161 1 0.568482 0.532217 0.499886
151 1 0.661604 0.488694 0.490497
160 1 0.696254 0.385655 0.500713
162 1 0.300699 0.215228 0.509268
156 1 0.428072 0.179323 0.499883
159 1 0.611277 0.212078 0.500467
165 1 0.497294 0.260322 0.509715
168 1 0.690718 0.279711 0.510147
163 1 0.188554 0.360727 0.506047
176 1 0.289367 0.510323 0.510385
157 1 0.383724 0.375687 0.503874
166 1 0.484434 0.521344 0.510782
167 1 0.387457 0.568523 0.500287
169 1 0.668476 0.497816 0.509847
171 1 0.192049 0.204048 0.518961
180 1 0.100003 0.100003 0.527099
181 1 0.300003 0.100003 0.527099
185 1 0.100003 0.300003 0.527099
189 1 0.300003 0.300003 0.527099
174 1 0.396361 0.201463 0.519127
177 1 0.597511 0.203116 0.518628
182 1 0.500002 0.100003 0.527099
193 1 0.500002 0.300003 0.527099
183 1 0.700002 0.100003 0.527099
184 1 0.900001 0.100003 0.527099
197 1 0.700002 0.300003 0.527099
201 1 0.900001 0.300003 0.527099
173 1 0.193663 0.594145 0.518967
172 1 0.192093 0.390748 0.51787
186 1 0.100003 0.500002 0.527099
190 1 0.300003 0.500002 0.527099
170 1 0.396315 0.61735 0.518746
175 1 0.39712 0.384037 0.517044
178 1 0.59766 0.395706 0.518411
179 1 0.596463 0.602638 0.519109
194 1 0.500002 0.500002 0.527099
198 1 0.700002 0.500002 0.527099
202 1 0.900001 0.500002 0.527099
187 1 0.100003 0.700002 0.527099
188 1 0.100003 0.900001 0.527099
191 1 0.300003 0.700002 0.527099
192 1 0.300003 0.900001 0.527099
195 1 0.500002 0.700002 0.527099
196 1 0.500002 0.900001 0.527099
199 1 0.700002 0.700002 0.527099
200 1 0.700002 0.900001 0.527099
203 1 0.900001 0.700002 0.527099
204 1 0.900001 0.900001 0.527099
205 1 0 0 0.536052
206 1 0.2 0 0.536052
210 1 0 0.2 0.536052
214 1 0.2 0.2 0.536052
230 1 0.100003 0.100003 0.545005
231 1 0.300003 0.100003 0.545005
235 1 0.100003 0.300003 0.545005
239 1 0.300003 0.300003 0.545005
207 1 0.399999 0 0.536052
208 1 0.599999 0 0.536052
218 1 0.399999 0.2 0.536052
222 1 0.599999 0.2 0.536052
232 1 0.500002 0.100003 0.545005
243 1 0.500002 0.300003 0.545005
209 1 0.799998 0 0.536052
226 1 0.799998 0.2 0.536052
233 1 0.700002 0.100003 0.545005
234 1 0.900001 0.100003 0.545005
247 1 0.700002 0.300003 0.545005
251 1 0.900001 0.300003 0.545005
211 1 0 0.399999 0.536052
212 1 0 0.599999 0.536052
215 1 0.2 0.399999 0.536052
216 1 0.2 0.599999 0.536052
236 1 0.100003 0.500002 0.545005
240 1 0.300003 0.500002 0.545005
219 1 0.399999 0.399999 0.536052
220 1 0.399999 0.599999 0.536052
223 1 0.599999 0.399999 0.536052
224 1 0.599999 0.599999 0.536052
244 1 0.500002 0.500002 0.545005
227 1 0.799998 0.399999 0.536052
228 1 0.799998 0.599999 0.536052
248 1 0.700002 0.500002 0.545005
252 1 0.900001 0.500002 0.545005
213 1 0 0.799998 0.536052
217 1 0.2 0.799998 0.536052
237 1 0.100003 0.700002 0.545005
238 1 0.100003 0.900001 0.545005
241 1 0.300003 0.700002 0.545005
242 1 0.300003 0.900001 0.545005
221 1 0.399999 0.799998 0.536052
225 1 0.599999 0.799998 0.536052
245 1 0.500002 0.700002 0.545005
246 1 0.500002 0.900001 0.545005
229 1 0.799998 0.799998 0.536052
249 1 0.700002 0.700002 0.545005
250 1 0.700002 0.900001 0.545005
253 1 0.900001 0.700002 0.545005
254 1 0.900001 0.900001 0.545005
255 1 0 0 0.553958
256 1 0.2 0 0.553958
260 1 0 0.2 0.553958
264 1 0.2 0.2 0.553958
280 1 0.100003 0.100003 0.562911
281 1 0.300003 0.100003 0.562911
285 1 0.100003 0.300003 0.562911
289 1 0.300003 0.300003 0.562911
257 1 0.399999 0 0.553958
258 1 0.599999 0 0.553958
268 1 0.399999 0.2 0.553958
272 1 0.599999 0.2 0.553958
282 1 0.500002 0.100003 0.562911
293 1 0.500002 0.300003 0.562911
259 1 0.799998 0 0.553958
276 1 0.799998 0.2 0.553958
283 1 0.700002 0.100003 0.562911
284 1 0.900001 0.100003 0.562911
297 1 0.700002 0.300003 0.562911
301 1 0.900001 0.300003 0.562911
261 1 0 0.399999 0.553958
262 1 0 0.599999 0.553958
265 1 0.2 0.399999 0.553958
266 1 0.2 0.599999 0.553958
286 1 0.100003 0.500002 0.562911
290 1 0.300003 0.500002 0.562911
269 1 0.399999 0.399999 0.553958
270 1 0.399999 0.599999 0.553958
273 1 0.599999 0.399999 0.553958
274 1 0.599999 0.599999 0.553958
294 1 0.500002 0.500002 0.562911
277 1 0.799998 0.399999 0.553958
278 1 0.799998 0.599999 0.553958
298 1 0.700002 0.500002 0.562911
302 1 0.900001 0.500002 0.562911
263 1 0 0.799998 0.553958
267 1 0.2 0.799998 0.553958
287 1 0.100003 0.700002 0.562911
288 1 0.100003 0.900001 0.562911
291 1 0.300003 0.700002 0.562911
292 1 0.300003 0.900001 0.562911
271 1 0.399999 0.799998 0.553958
275 1 0.599999 0.799998 0.553958
295 1 0.500002 0.700002 0.562911
296 1 0.500002 0.900001 0.562911
279 1 0.799998 0.799998 0.553958
299 1 0.700002 0.700002 0.562911
300 1 0.700002 0.900001 0.562911
303 1 0.900001 0.700002 0.562911
304 1 0.900001 0.900001 0.562911
ITEM: TIMESTEP
4000
ITEM: NUMBER OF ATOMS
304
ITEM: BOX BOUNDS pp pp pp
0.0000000000000000e+00 1.4778532000000000e+01
0.0000000000000000e+00 1.4778532000000000e+01
-1.0000000000000000e+02 1.3344000000000000e+02
ITEM: ATOMS id type xs ys zs
1 1 0 0 0.427896
2 1 0.2 0 0.427896
6 1 0 0.2 0.427896
10 1 0.2 0.2 0.427896
3 1 0.399999 0 0.427896
4 1 0.599999 0 0.427896
14 1 0.399999 0.2 0.427896
18 1 0.599999 0.2 0.427896
5 1 0.799998 0 0.427896
22 1 0.799998 0.2 0.427896
7 1 0 0.399999 0.427896
8 1 0 0.599999 0.427896
11 1 0.2 0.399999 0.427896
12 1 0.2 0.599999 0.427896
15 1 0.399999 0.399999 0.427896
16 1 0.399999 0.599999 0.427896
19 1 0.599999 0.399999 0.427896
20 1 0.599999 0.599999 0.427896
23 1 0.799998 0.399999 0.427896
24 1 0.799998 0.599999 0.427896
9 1 0 0.799998 0.427896
13 1 0.2 0.799998 0.427896
17 1 0.399999 0.799998 0.427896
21 1 0.599999 0.799998 0.427896
25 1 0.799998 0.799998 0.427896
26 1 0.100003 0.100003 0.436849
27 1 0.300003 0.100003 0.436849
31 1 0.100003 0.300003 0.436849
35 1 0.300003 0.300003 0.436849
51 1 0 0 0.445802
52 1 0.2 0 0.445802
56 1 0 0.2 0.445802
60 1 0.2 0.2 0.445802
28 1 0.500002 0.100003 0.436849
39 1 0.500002 0.300003 0.436849
53 1 0.399999 0 0.445802
54 1 0.599999 0 0.445802
64 1 0.399999 0.2 0.445802
68 1 0.599999 0.2 0.445802
29 1 0.700002 0.100003 0.436849
30 1 0.900001 0.100003 0.436849
43 1 0.700002 0.300003 0.436849
47 1 0.900001 0.300003 0.436849
55 1 0.799998 0 0.445802
72 1 0.799998 0.2 0.445802
32 1 0.100003 0.500002 0.436849
36 1 0.300003 0.500002 0.436849
57 1 0 0.399999 0.445802
58 1 0 0.599999 0.445802
61 1 0.2 0.399999 0.445802
62 1 0.2 0.599999 0.445802
40 1 0.500002 0.500002 0.436849
65 1 0.399999 0.399999 0.445802
66 1 0.399999 0.599999 0.445802
69 1 0.599999 0.399999 0.445802
70 1 0.599999 0.599999 0.445802
44 1 0.700002 0.500002 0.436849
48 1 0.900001 0.500002 0.436849
73 1 0.799998 0.399999 0.445802
74 1 0.799998 0.599999 0.445802
33 1 0.100003 0.700002 0.436849
34 1 0.100003 0.900001 0.436849
37 1 0.300003 0.700002 0.436849
38 1 0.300003 0.900001 0.436849
59 1 0 0.799998 0.445802
63 1 0.2 0.799998 0.445802
41 1 0.500002 0.700002 0.436849
42 1 0.500002 0.900001 0.436849
67 1 0.399999 0.799998 0.445802
71 1 0.599999 0.799998 0.445802
45 1 0.700002 0.700002 0.436849
46 1 0.700002 0.900001 0.436849
49 1 0.900001 0.700002 0.436849
50 1 0.900001 0.900001 0.436849
75 1 0.799998 0.799998 0.445802
76 1 0.100003 0.100003 0.454755
77 1 0.300003 0.100003 0.454755
81 1 0.100003 0.300003 0.454755
85 1 0.300003 0.300003 0.454755
101 1 0 0 0.463708
102 1 0.2 0 0.463708
106 1 0 0.2 0.463708
110 1 0.2 0.2 0.463708
78 1 0.500002 0.100003 0.454755
89 1 0.500002 0.300003 0.454755
103 1 0.399999 0 0.463708
104 1 0.599999 0 0.463708
114 1 0.399999 0.2 0.463708
118 1 0.599999 0.2 0.463708
79 1 0.700002 0.100003 0.454755
80 1 0.900001 0.100003 0.454755
93 1 0.700002 0.300003 0.454755
97 1 0.900001 0.300003 0.454755
105 1 0.799998 0 0.463708
122 1 0.799998 0.2 0.463708
82 1 0.100003 0.500002 0.454755
86 1 0.300003 0.500002 0.454755
107 1 0 0.399999 0.463708
108 1 0 0.599999 0.463708
111 1 0.2 0.399999 0.463708
112 1 0.2 0.599999 0.463708
90 1 0.500002 0.500002 0.454755
115 1 0.399999 0.399999 0.463708
116 1 0.399999 0.599999 0.463708
119 1 0.599999 0.399999 0.463708
120 1 0.599999 0.599999 0.463708
94 1 0.700002 0.500002 0.454755
98 1 0.900001 0.500002 0.454755
123 1 0.799998 0.399999 0.463708
124 1 0.799998 0.599999 0.463708
83 1 0.100003 0.700002 0.454755
84 1 0.100003 0.900001 0.454755
87 1 0.300003 0.700002 0.454755
88 1 0.300003 0.900001 0.454755
109 1 0 0.799998 0.463708
113 1 0.2 0.799998 0.463708
91 1 0.500002 0.700002 0.454755
92 1 0.500002 0.900001 0.454755
117 1 0.399999 0.799998 0.463708
121 1 0.599999 0.799998 0.463708
95 1 0.700002 0.700002 0.454755
96 1 0.700002 0.900001 0.454755
99 1 0.900001 0.700002 0.454755
100 1 0.900001 0.900001 0.454755
125 1 0.799998 0.799998 0.463708
126 1 0.303954 0.295793 0.472569
136 1 0.104223 0.29266 0.472795
135 1 0.210715 0.241401 0.483049
129 1 0.497594 0.301497 0.472172
138 1 0.400691 0.226425 0.481409
141 1 0.598411 0.208158 0.480327
132 1 0.707632 0.301776 0.472295
127 1 0.297986 0.487747 0.472584
137 1 0.0925881 0.500983 0.472439
146 1 0.195458 0.596874 0.479802
145 1 0.123633 0.404576 0.482203
130 1 0.498218 0.502031 0.472459
139 1 0.402617 0.419254 0.481717
140 1 0.38402 0.619078 0.48074
142 1 0.606217 0.399288 0.480411
143 1 0.601007 0.604201 0.480815
133 1 0.703865 0.502433 0.472697
128 1 0.29476 0.700507 0.471708
131 1 0.494652 0.704232 0.472776
134 1 0.695751 0.702409 0.472059
154 1 0.221704 0.239282 0.499039
153 1 0.317949 0.142716 0.490772
147 1 0.50976 0.179088 0.490805
150 1 0.662735 0.302481 0.489712
155 1 0.15758 0.385562 0.49367
148 1 0.328755 0.329476 0.490903
158 1 0.100517 0.552946 0.489378
149 1 0.302563 0.524085 0.489716
164 1 0.201481 0.548957 0.499622
144 1 0.503501 0.391513 0.493174
152 1 0.490144 0.582034 0.490058
161 1 0.58071 0.559706 0.500248
151 1 0.673278 0.504749 0.48978
160 1 0.696347 0.404856 0.499809
162 1 0.290577 0.249513 0.509771
156 1 0.409412 0.191442 0.500806
159 1 0.590073 0.247447 0.500136
165 1 0.487996 0.272074 0.510548
168 1 0.672853 0.305825 0.509523
163 1 0.179921 0.381218 0.50568
176 1 0.289207 0.522365 0.510357
157 1 0.386399 0.384729 0.503045
166 1 0.493088 0.512493 0.510436
167 1 0.395793 0.556134 0.500029
169 1 0.685825 0.504881 0.509978
171 1 0.193823 0.194199 0.519228
180 1 0.100003 0.100003 0.527339
181 1 0.300003 0.100003 0.527339
185 1 0.100003 0.300003 0.527339
189 1 0.300003 0.300003 0.527339
174 1 0.39198 0.191226 0.51928
177 1 0.601078 0.200803 0.518704
182 1 0.500002 0.100003 0.527339
193 1 0.500002 0.300003 0.527339
183 1 0.700002 0.100003 0.527339
184 1 0.900001 0.100003 0.527339
197 1 0.700002 0.300003 0.527339
201 1 0.900001 0.300003 0.527339
173 1 0.195574 0.598763 0.51921
172 1 0.190077 0.395131 0.518251
186 1 0.100003 0.500002 0.527339
190 1 0.300003 0.500002 0.527339
170 1 0.394814 0.605112 0.518636
175 1 0.393657 0.398387 0.518193
178 1 0.604434 0.394 0.518869
179 1 0.606579 0.601489 0.518762
194 1 0.500002 0.500002 0.527339
198 1 0.700002 0.500002 0.527339
202 1 0.900001 0.500002 0.527339
187 1 0.100003 0.700002 0.527339
188 1 0.100003 0.900001 0.527339
191 1 0.300003 0.700002 0.527339
192 1 0.300003 0.900001 0.527339
195 1 0.500002 0.700002 0.527339
196 1 0.500002 0.900001 0.527339
199 1 0.700002 0.700002 0.527339
200 1 0.700002 0.900001 0.527339
203 1 0.900001 0.700002 0.527339
204 1 0.900001 0.900001 0.527339
205 1 0 0 0.536292
206 1 0.2 0 0.536292
210 1 0 0.2 0.536292
214 1 0.2 0.2 0.536292
230 1 0.100003 0.100003 0.545245
231 1 0.300003 0.100003 0.545245
235 1 0.100003 0.300003 0.545245
239 1 0.300003 0.300003 0.545245
207 1 0.399999 0 0.536292
208 1 0.599999 0 0.536292
218 1 0.399999 0.2 0.536292
222 1 0.599999 0.2 0.536292
232 1 0.500002 0.100003 0.545245
243 1 0.500002 0.300003 0.545245
209 1 0.799998 0 0.536292
226 1 0.799998 0.2 0.536292
233 1 0.700002 0.100003 0.545245
234 1 0.900001 0.100003 0.545245
247 1 0.700002 0.300003 0.545245
251 1 0.900001 0.300003 0.545245
211 1 0 0.399999 0.536292
212 1 0 0.599999 0.536292
215 1 0.2 0.399999 0.536292
216 1 0.2 0.599999 0.536292
236 1 0.100003 0.500002 0.545245
240 1 0.300003 0.500002 0.545245
219 1 0.399999 0.399999 0.536292
220 1 0.399999 0.599999 0.536292
223 1 0.599999 0.399999 0.536292
224 1 0.599999 0.599999 0.536292
244 1 0.500002 0.500002 0.545245
227 1 0.799998 0.399999 0.536292
228 1 0.799998 0.599999 0.536292
248 1 0.700002 0.500002 0.545245
252 1 0.900001 0.500002 0.545245
213 1 0 0.799998 0.536292
217 1 0.2 0.799998 0.536292
237 1 0.100003 0.700002 0.545245
238 1 0.100003 0.900001 0.545245
241 1 0.300003 0.700002 0.545245
242 1 0.300003 0.900001 0.545245
221 1 0.399999 0.799998 0.536292
225 1 0.599999 0.799998 0.536292
245 1 0.500002 0.700002 0.545245
246 1 0.500002 0.900001 0.545245
229 1 0.799998 0.799998 0.536292
249 1 0.700002 0.700002 0.545245
250 1 0.700002 0.900001 0.545245
253 1 0.900001 0.700002 0.545245
254 1 0.900001 0.900001 0.545245
255 1 0 0 0.554198
256 1 0.2 0 0.554198
260 1 0 0.2 0.554198
264 1 0.2 0.2 0.554198
280 1 0.100003 0.100003 0.563151
281 1 0.300003 0.100003 0.563151
285 1 0.100003 0.300003 0.563151
289 1 0.300003 0.300003 0.563151
257 1 0.399999 0 0.554198
258 1 0.599999 0 0.554198
268 1 0.399999 0.2 0.554198
272 1 0.599999 0.2 0.554198
282 1 0.500002 0.100003 0.563151
293 1 0.500002 0.300003 0.563151
259 1 0.799998 0 0.554198
276 1 0.799998 0.2 0.554198
283 1 0.700002 0.100003 0.563151
284 1 0.900001 0.100003 0.563151
297 1 0.700002 0.300003 0.563151
301 1 0.900001 0.300003 0.563151
261 1 0 0.399999 0.554198
262 1 0 0.599999 0.554198
265 1 0.2 0.399999 0.554198
266 1 0.2 0.599999 0.554198
286 1 0.100003 0.500002 0.563151
290 1 0.300003 0.500002 0.563151
269 1 0.399999 0.399999 0.554198
270 1 0.399999 0.599999 0.554198
273 1 0.599999 0.399999 0.554198
274 1 0.599999 0.599999 0.554198
294 1 0.500002 0.500002 0.563151
277 1 0.799998 0.399999 0.554198
278 1 0.799998 0.599999 0.554198
298 1 0.700002 0.500002 0.563151
302 1 0.900001 0.500002 0.563151
263 1 0 0.799998 0.554198
267 1 0.2 0.799998 0.554198
287 1 0.100003 0.700002 0.563151
288 1 0.100003 0.900001 0.563151
291 1 0.300003 0.700002 0.563151
292 1 0.300003 0.900001 0.563151
271 1 0.399999 0.799998 0.554198
275 1 0.599999 0.799998 0.554198
295 1 0.500002 0.700002 0.563151
296 1 0.500002 0.900001 0.563151
279 1 0.799998 0.799998 0.554198
299 1 0.700002 0.700002 0.563151
300 1 0.700002 0.900001 0.563151
303 1 0.900001 0.700002 0.563151
304 1 0.900001 0.900001 0.563151
ITEM: TIMESTEP
6000
ITEM: NUMBER OF ATOMS
304
ITEM: BOX BOUNDS pp pp pp
0.0000000000000000e+00 1.4778532000000000e+01
0.0000000000000000e+00 1.4778532000000000e+01
-1.0000000000000000e+02 1.3344000000000000e+02
ITEM: ATOMS id type xs ys zs
1 1 0 0 0.427656
2 1 0.2 0 0.427656
6 1 0 0.2 0.427656
10 1 0.2 0.2 0.427656
3 1 0.399999 0 0.427656
4 1 0.599999 0 0.427656
14 1 0.399999 0.2 0.427656
18 1 0.599999 0.2 0.427656
5 1 0.799998 0 0.427656
22 1 0.799998 0.2 0.427656
7 1 0 0.399999 0.427656
8 1 0 0.599999 0.427656
11 1 0.2 0.399999 0.427656
12 1 0.2 0.599999 0.427656
15 1 0.399999 0.399999 0.427656
16 1 0.399999 0.599999 0.427656
19 1 0.599999 0.399999 0.427656
20 1 0.599999 0.599999 0.427656
23 1 0.799998 0.399999 0.427656
24 1 0.799998 0.599999 0.427656
9 1 0 0.799998 0.427656
13 1 0.2 0.799998 0.427656
17 1 0.399999 0.799998 0.427656
21 1 0.599999 0.799998 0.427656
25 1 0.799998 0.799998 0.427656
26 1 0.100003 0.100003 0.436609
27 1 0.300003 0.100003 0.436609
31 1 0.100003 0.300003 0.436609
35 1 0.300003 0.300003 0.436609
51 1 0 0 0.445562
52 1 0.2 0 0.445562
56 1 0 0.2 0.445562
60 1 0.2 0.2 0.445562
28 1 0.500002 0.100003 0.436609
39 1 0.500002 0.300003 0.436609
53 1 0.399999 0 0.445562
54 1 0.599999 0 0.445562
64 1 0.399999 0.2 0.445562
68 1 0.599999 0.2 0.445562
29 1 0.700002 0.100003 0.436609