ITEM: TIMESTEP
0
ITEM: NUMBER OF ATOMS
304
ITEM: BOX BOUNDS pp pp pp
0.0000000000000000e+00 1.4778532000000000e+01
0.0000000000000000e+00 1.4778532000000000e+01
-1.0000000000000000e+02 1.3344000000000000e+02
ITEM: ATOMS id type xs ys zs
1 1 0 0 0.428376
2 1 0.2 0 0.428376
6 1 0 0.2 0.428376
10 1 0.2 0.2 0.428376
3 1 0.399999 0 0.428376
4 1 0.599999 0 0.428376
14 1 0.399999 0.2 0.428376
18 1 0.599999 0.2 0.428376
5 1 0.799998 0 0.428376
22 1 0.799998 0.2 0.428376
7 1 0 0.399999 0.428376
8 1 0 0.599999 0.428376
11 1 0.2 0.399999 0.428376
12 1 0.2 0.599999 0.428376
15 1 0.399999 0.399999 0.428376
16 1 0.399999 0.599999 0.428376
19 1 0.599999 0.399999 0.428376
20 1 0.599999 0.599999 0.428376
23 1 0.799998 0.399999 0.428376
24 1 0.799998 0.599999 0.428376
9 1 0 0.799998 0.428376
13 1 0.2 0.799998 0.428376
17 1 0.399999 0.799998 0.428376
21 1 0.599999 0.799998 0.428376
25 1 0.799998 0.799998 0.428376
26 1 0.100003 0.100003 0.437329
27 1 0.300003 0.100003 0.437329
31 1 0.100003 0.300003 0.437329
35 1 0.300003 0.300003 0.437329
51 1 0 0 0.446282
52 1 0.2 0 0.446282
56 1 0 0.2 0.446282
60 1 0.2 0.2 0.446282
28 1 0.500002 0.100003 0.437329
39 1 0.500002 0.300003 0.437329
53 1 0.399999 0 0.446282
54 1 0.599999 0 0.446282
64 1 0.399999 0.2 0.446282
68 1 0.599999 0.2 0.446282
29 1 0.700002 0.100003 0.437329
30 1 0.900001 0.100003 0.437329
43 1 0.700002 0.300003 0.437329
47 1 0.900001 0.300003 0.437329
55 1 0.799998 0 0.446282
72 1 0.799998 0.2 0.446282
32 1 0.100003 0.500002 0.437329
36 1 0.300003 0.500002 0.437329
57 1 0 0.399999 0.446282
58 1 0 0.599999 0.446282
61 1 0.2 0.399999 0.446282
62 1 0.2 0.599999 0.446282
40 1 0.500002 0.500002 0.437329
65 1 0.399999 0.399999 0.446282
66 1 0.399999 0.599999 0.446282
69 1 0.599999 0.399999 0.446282
70 1 0.599999 0.599999 0.446282
44 1 0.700002 0.500002 0.437329
48 1 0.900001 0.500002 0.437329
73 1 0.799998 0.399999 0.446282
74 1 0.799998 0.599999 0.446282
33 1 0.100003 0.700002 0.437329
34 1 0.100003 0.900001 0.437329
37 1 0.300003 0.700002 0.437329
38 1 0.300003 0.900001 0.437329
59 1 0 0.799998 0.446282
63 1 0.2 0.799998 0.446282
41 1 0.500002 0.700002 0.437329
42 1 0.500002 0.900001 0.437329
67 1 0.399999 0.799998 0.446282
71 1 0.599999 0.799998 0.446282
45 1 0.700002 0.700002 0.437329
46 1 0.700002 0.900001 0.437329
49 1 0.900001 0.700002 0.437329
50 1 0.900001 0.900001 0.437329
75 1 0.799998 0.799998 0.446282
76 1 0.100003 0.100003 0.455235
77 1 0.300003 0.100003 0.455235
81 1 0.100003 0.300003 0.455235
85 1 0.300003 0.300003 0.455235
101 1 0 0 0.464188
102 1 0.2 0 0.464188
106 1 0 0.2 0.464188
110 1 0.2 0.2 0.464188
78 1 0.500002 0.100003 0.455235
89 1 0.500002 0.300003 0.455235
103 1 0.399999 0 0.464188
104 1 0.599999 0 0.464188
114 1 0.399999 0.2 0.464188
118 1 0.599999 0.2 0.464188
79 1 0.700002 0.100003 0.455235
80 1 0.900001 0.100003 0.455235
93 1 0.700002 0.300003 0.455235
97 1 0.900001 0.300003 0.455235
105 1 0.799998 0 0.464188
122 1 0.799998 0.2 0.464188
82 1 0.100003 0.500002 0.455235
86 1 0.300003 0.500002 0.455235
107 1 0 0.399999 0.464188
108 1 0 0.599999 0.464188
111 1 0.2 0.399999 0.464188
112 1 0.2 0.599999 0.464188
90 1 0.500002 0.500002 0.455235
115 1 0.399999 0.399999 0.464188
116 1 0.399999 0.599999 0.464188
119 1 0.599999 0.399999 0.464188
120 1 0.599999 0.599999 0.464188
94 1 0.700002 0.500002 0.455235
98 1 0.900001 0.500002 0.455235
123 1 0.799998 0.399999 0.464188
124 1 0.799998 0.599999 0.464188
83 1 0.100003 0.700002 0.455235
84 1 0.100003 0.900001 0.455235
87 1 0.300003 0.700002 0.455235
88 1 0.300003 0.900001 0.455235
109 1 0 0.799998 0.464188
113 1 0.2 0.799998 0.464188
91 1 0.500002 0.700002 0.455235
92 1 0.500002 0.900001 0.455235
117 1 0.399999 0.799998 0.464188
121 1 0.599999 0.799998 0.464188
95 1 0.700002 0.700002 0.455235
96 1 0.700002 0.900001 0.455235
99 1 0.900001 0.700002 0.455235
100 1 0.900001 0.900001 0.455235
125 1 0.799998 0.799998 0.464188
126 1 0.0983318 0.307342 0.472484
141 1 0.284724 0.0969767 0.472666
135 1 0.292152 0.285814 0.473605
129 1 0.499815 0.296456 0.473641
138 1 0.490893 0.100496 0.472171
150 1 0.407915 0.163318 0.481475
132 1 0.70275 0.305557 0.47294
127 1 0.309045 0.498248 0.472657
136 1 0.177863 0.397273 0.480949
137 1 0.245752 0.579044 0.482213
130 1 0.507023 0.505526 0.472587
139 1 0.403072 0.387061 0.482213
142 1 0.598289 0.40957 0.48067
143 1 0.614415 0.608554 0.481413
140 1 0.419823 0.629542 0.480929
133 1 0.709043 0.508617 0.472917
128 1 0.301258 0.694622 0.472681
131 1 0.512576 0.703979 0.472222
134 1 0.716158 0.694253 0.472927
153 1 0.261284 0.302646 0.49716
144 1 0.26461 0.264833 0.485534
147 1 0.408935 0.214863 0.492968
159 1 0.554426 0.241828 0.499958
145 1 0.191017 0.453425 0.491798
148 1 0.526122 0.36639 0.492016
161 1 0.386381 0.504956 0.491182
151 1 0.644068 0.507128 0.491118
149 1 0.511478 0.647774 0.491505
146 1 0.3156 0.695179 0.491147
162 1 0.27946 0.305936 0.509427
156 1 0.395024 0.179976 0.504038
165 1 0.500053 0.292745 0.510471
174 1 0.404553 0.179068 0.517165
168 1 0.685456 0.303784 0.510287
155 1 0.252357 0.58258 0.500157
154 1 0.157119 0.42439 0.503416
163 1 0.303139 0.49478 0.509742
160 1 0.644369 0.414793 0.501834
152 1 0.597377 0.60493 0.501496
157 1 0.409394 0.414385 0.501207
166 1 0.500801 0.503395 0.509714
170 1 0.702107 0.522622 0.510453
164 1 0.28477 0.683236 0.509751
158 1 0.408774 0.68624 0.501007
167 1 0.522102 0.694582 0.510062
171 1 0.205482 0.202224 0.518622
180 1 0.100003 0.100003 0.526859
181 1 0.300003 0.100003 0.526859
185 1 0.100003 0.300003 0.526859
189 1 0.300003 0.300003 0.526859
177 1 0.612947 0.205062 0.518774
182 1 0.500002 0.100003 0.526859
193 1 0.500002 0.300003 0.526859
183 1 0.700002 0.100003 0.526859
184 1 0.900001 0.100003 0.526859
197 1 0.700002 0.300003 0.526859
201 1 0.900001 0.300003 0.526859
172 1 0.186371 0.390133 0.518102
173 1 0.188878 0.59751 0.518579
186 1 0.100003 0.500002 0.526859
190 1 0.300003 0.500002 0.526859
175 1 0.396056 0.402465 0.518371
176 1 0.3949 0.612412 0.518085
178 1 0.602942 0.405426 0.51813
179 1 0.606868 0.613845 0.518933
194 1 0.500002 0.500002 0.526859
169 1 0.801295 0.412287 0.518271
198 1 0.700002 0.500002 0.526859
202 1 0.900001 0.500002 0.526859
187 1 0.100003 0.700002 0.526859
188 1 0.100003 0.900001 0.526859
191 1 0.300003 0.700002 0.526859
192 1 0.300003 0.900001 0.526859
195 1 0.500002 0.700002 0.526859
196 1 0.500002 0.900001 0.526859
199 1 0.700002 0.700002 0.526859
200 1 0.700002 0.900001 0.526859
203 1 0.900001 0.700002 0.526859
204 1 0.900001 0.900001 0.526859
205 1 0 0 0.535812
206 1 0.2 0 0.535812
210 1 0 0.2 0.535812
214 1 0.2 0.2 0.535812
230 1 0.100003 0.100003 0.544765
231 1 0.300003 0.100003 0.544765
235 1 0.100003 0.300003 0.544765
239 1 0.300003 0.300003 0.544765
207 1 0.399999 0 0.535812
208 1 0.599999 0 0.535812
218 1 0.399999 0.2 0.535812
222 1 0.599999 0.2 0.535812
232 1 0.500002 0.100003 0.544765
243 1 0.500002 0.300003 0.544765
209 1 0.799998 0 0.535812
226 1 0.799998 0.2 0.535812
233 1 0.700002 0.100003 0.544765
234 1 0.900001 0.100003 0.544765
247 1 0.700002 0.300003 0.544765
251 1 0.900001 0.300003 0.544765
211 1 0 0.399999 0.535812
212 1 0 0.599999 0.535812
215 1 0.2 0.399999 0.535812
216 1 0.2 0.599999 0.535812
236 1 0.100003 0.500002 0.544765
240 1 0.300003 0.500002 0.544765
219 1 0.399999 0.399999 0.535812
220 1 0.399999 0.599999 0.535812
223 1 0.599999 0.399999 0.535812
224 1 0.599999 0.599999 0.535812
244 1 0.500002 0.500002 0.544765
227 1 0.799998 0.399999 0.535812
228 1 0.799998 0.599999 0.535812
248 1 0.700002 0.500002 0.544765
252 1 0.900001 0.500002 0.544765
213 1 0 0.799998 0.535812
217 1 0.2 0.799998 0.535812
237 1 0.100003 0.700002 0.544765
238 1 0.100003 0.900001 0.544765
241 1 0.300003 0.700002 0.544765
242 1 0.300003 0.900001 0.544765
221 1 0.399999 0.799998 0.535812
225 1 0.599999 0.799998 0.535812
245 1 0.500002 0.700002 0.544765
246 1 0.500002 0.900001 0.544765
229 1 0.799998 0.799998 0.535812
249 1 0.700002 0.700002 0.544765
250 1 0.700002 0.900001 0.544765
253 1 0.900001 0.700002 0.544765
254 1 0.900001 0.900001 0.544765
255 1 0 0 0.553718
256 1 0.2 0 0.553718
260 1 0 0.2 0.553718
264 1 0.2 0.2 0.553718
280 1 0.100003 0.100003 0.562671
281 1 0.300003 0.100003 0.562671
285 1 0.100003 0.300003 0.562671
289 1 0.300003 0.300003 0.562671
257 1 0.399999 0 0.553718
258 1 0.599999 0 0.553718
268 1 0.399999 0.2 0.553718
272 1 0.599999 0.2 0.553718
282 1 0.500002 0.100003 0.562671
293 1 0.500002 0.300003 0.562671
259 1 0.799998 0 0.553718
276 1 0.799998 0.2 0.553718
283 1 0.700002 0.100003 0.562671
284 1 0.900001 0.100003 0.562671
297 1 0.700002 0.300003 0.562671
301 1 0.900001 0.300003 0.562671
261 1 0 0.399999 0.553718
262 1 0 0.599999 0.553718
265 1 0.2 0.399999 0.553718
266 1 0.2 0.599999 0.553718
286 1 0.100003 0.500002 0.562671
290 1 0.300003 0.500002 0.562671
269 1 0.399999 0.399999 0.553718
270 1 0.399999 0.599999 0.553718
273 1 0.599999 0.399999 0.553718
274 1 0.599999 0.599999 0.553718
294 1 0.500002 0.500002 0.562671
277 1 0.799998 0.399999 0.553718
278 1 0.799998 0.599999 0.553718
298 1 0.700002 0.500002 0.562671
302 1 0.900001 0.500002 0.562671
263 1 0 0.799998 0.553718
267 1 0.2 0.799998 0.553718
287 1 0.100003 0.700002 0.562671
288 1 0.100003 0.900001 0.562671
291 1 0.300003 0.700002 0.562671
292 1 0.300003 0.900001 0.562671
271 1 0.399999 0.799998 0.553718
275 1 0.599999 0.799998 0.553718
295 1 0.500002 0.700002 0.562671
296 1 0.500002 0.900001 0.562671
279 1 0.799998 0.799998 0.553718
299 1 0.700002 0.700002 0.562671
300 1 0.700002 0.900001 0.562671
303 1 0.900001 0.700002 0.562671
304 1 0.900001 0.900001 0.562671
ITEM: TIMESTEP
2000
ITEM: NUMBER OF ATOMS
304
ITEM: BOX BOUNDS pp pp pp
0.0000000000000000e+00 1.4778532000000000e+01
0.0000000000000000e+00 1.4778532000000000e+01
-1.0000000000000000e+02 1.3344000000000000e+02
ITEM: ATOMS id type xs ys zs
1 1 0 0 0.428136
2 1 0.2 0 0.428136
6 1 0 0.2 0.428136
10 1 0.2 0.2 0.428136
3 1 0.399999 0 0.428136
4 1 0.599999 0 0.428136
14 1 0.399999 0.2 0.428136
18 1 0.599999 0.2 0.428136
5 1 0.799998 0 0.428136
22 1 0.799998 0.2 0.428136
7 1 0 0.399999 0.428136
8 1 0 0.599999 0.428136
11 1 0.2 0.399999 0.428136
12 1 0.2 0.599999 0.428136
15 1 0.399999 0.399999 0.428136
16 1 0.399999 0.599999 0.428136
19 1 0.599999 0.399999 0.428136
20 1 0.599999 0.599999 0.428136
23 1 0.799998 0.399999 0.428136
24 1 0.799998 0.599999 0.428136
9 1 0 0.799998 0.428136
13 1 0.2 0.799998 0.428136
17 1 0.399999 0.799998 0.428136
21 1 0.599999 0.799998 0.428136
25 1 0.799998 0.799998 0.428136
26 1 0.100003 0.100003 0.437089
27 1 0.300003 0.100003 0.437089
31 1 0.100003 0.300003 0.437089
35 1 0.300003 0.300003 0.437089
51 1 0 0 0.446042
52 1 0.2 0 0.446042
56 1 0 0.2 0.446042
60 1 0.2 0.2 0.446042
28 1 0.500002 0.100003 0.437089
39 1 0.500002 0.300003 0.437089
53 1 0.399999 0 0.446042
54 1 0.599999 0 0.446042
64 1 0.399999 0.2 0.446042
68 1 0.599999 0.2 0.446042
29 1 0.700002 0.100003 0.437089
30 1 0.900001 0.100003 0.437089
43 1 0.700002 0.300003 0.437089
47 1 0.900001 0.300003 0.437089
55 1 0.799998 0 0.446042
72 1 0.799998 0.2 0.446042
32 1 0.100003 0.500002 0.437089
36 1 0.300003 0.500002 0.437089
57 1 0 0.399999 0.446042
58 1 0 0.599999 0.446042
61 1 0.2 0.399999 0.446042
62 1 0.2 0.599999 0.446042
40 1 0.500002 0.500002 0.437089
65 1 0.399999 0.399999 0.446042
66 1 0.399999 0.599999 0.446042
69 1 0.599999 0.399999 0.446042
70 1 0.599999 0.599999 0.446042
44 1 0.700002 0.500002 0.437089
48 1 0.900001 0.500002 0.437089
73 1 0.799998 0.399999 0.446042
74 1 0.799998 0.599999 0.446042
33 1 0.100003 0.700002 0.437089
34 1 0.100003 0.900001 0.437089
37 1 0.300003 0.700002 0.437089
38 1 0.300003 0.900001 0.437089
59 1 0 0.799998 0.446042
63 1 0.2 0.799998 0.446042
41 1 0.500002 0.700002 0.437089
42 1 0.500002 0.900001 0.437089
67 1 0.399999 0.799998 0.446042
71 1 0.599999 0.799998 0.446042
45 1 0.700002 0.700002 0.437089
46 1 0.700002 0.900001 0.437089
49 1 0.900001 0.700002 0.437089
50 1 0.900001 0.900001 0.437089
75 1 0.799998 0.799998 0.446042
76 1 0.100003 0.100003 0.454995
77 1 0.300003 0.100003 0.454995
81 1 0.100003 0.300003 0.454995
85 1 0.300003 0.300003 0.454995
101 1 0 0 0.463948
102 1 0.2 0 0.463948
106 1 0 0.2 0.463948
110 1 0.2 0.2 0.463948
78 1 0.500002 0.100003 0.454995
89 1 0.500002 0.300003 0.454995
103 1 0.399999 0 0.463948
104 1 0.599999 0 0.463948
114 1 0.399999 0.2 0.463948
118 1 0.599999 0.2 0.463948
79 1 0.700002 0.100003 0.454995
80 1 0.900001 0.100003 0.454995
93 1 0.700002 0.300003 0.454995
97 1 0.900001 0.300003 0.454995
105 1 0.799998 0 0.463948
122 1 0.799998 0.2 0.463948
82 1 0.100003 0.500002 0.454995
86 1 0.300003 0.500002 0.454995
107 1 0 0.399999 0.463948
108 1 0 0.599999 0.463948
111 1 0.2 0.399999 0.463948
112 1 0.2 0.599999 0.463948
90 1 0.500002 0.500002 0.454995
115 1 0.399999 0.399999 0.463948
116 1 0.399999 0.599999 0.463948
119 1 0.599999 0.399999 0.463948
120 1 0.599999 0.599999 0.463948
94 1 0.700002 0.500002 0.454995
98 1 0.900001 0.500002 0.454995
123 1 0.799998 0.399999 0.463948
124 1 0.799998 0.599999 0.463948
83 1 0.100003 0.700002 0.454995
84 1 0.100003 0.900001 0.454995
87 1 0.300003 0.700002 0.454995
88 1 0.300003 0.900001 0.454995
109 1 0 0.799998 0.463948
113 1 0.2 0.799998 0.463948
91 1 0.500002 0.700002 0.454995
92 1 0.500002 0.900001 0.454995
117 1 0.399999 0.799998 0.463948
121 1 0.599999 0.799998 0.463948
95 1 0.700002 0.700002 0.454995
96 1 0.700002 0.900001 0.454995
99 1 0.900001 0.700002 0.454995
100 1 0.900001 0.900001 0.454995
125 1 0.799998 0.799998 0.463948
126 1 0.100226 0.298952 0.47222
141 1 0.307405 0.100954 0.472483
135 1 0.301406 0.294016 0.472615
129 1 0.498269 0.306822 0.472894
138 1 0.508848 0.109677 0.472175
150 1 0.423158 0.175484 0.481695
132 1 0.701392 0.307326 0.47292
127 1 0.282439 0.507032 0.472631
136 1 0.189533 0.396583 0.480512
130 1 0.467363 0.520903 0.474524
139 1 0.393875 0.393973 0.481343
142 1 0.601694 0.402791 0.480741
143 1 0.605545 0.625743 0.480743
140 1 0.4147 0.669576 0.48127
133 1 0.694407 0.502609 0.47262
128 1 0.296536 0.705748 0.471972
131 1 0.506379 0.711855 0.472378
134 1 0.715432 0.710645 0.472057
153 1 0.256451 0.26219 0.498124
144 1 0.274878 0.255459 0.486209
147 1 0.41011 0.19273 0.493307
137 1 0.268469 0.556308 0.483879
145 1 0.240263 0.431467 0.492558
148 1 0.51094 0.344451 0.490344
161 1 0.413024 0.511284 0.490758
151 1 0.616648 0.507897 0.490014
160 1 0.615338 0.417474 0.499815
146 1 0.324329 0.68366 0.491033
149 1 0.523908 0.680997 0.491033
162 1 0.292601 0.281314 0.50994
159 1 0.554745 0.241876 0.500221
156 1 0.405109 0.160262 0.50552
165 1 0.491544 0.306176 0.510673
174 1 0.406299 0.178542 0.518435
168 1 0.673169 0.316374 0.509943
155 1 0.271035 0.576508 0.50036
154 1 0.181225 0.421616 0.504607
163 1 0.305767 0.503943 0.510959
152 1 0.589832 0.608739 0.500433
157 1 0.382322 0.415571 0.501357
166 1 0.493736 0.512012 0.50911
170 1 0.674074 0.512222 0.50959
164 1 0.311295 0.691473 0.511066
158 1 0.407613 0.721561 0.500759
167 1 0.514844 0.696127 0.510052
171 1 0.201688 0.201723 0.519013
180 1 0.100003 0.100003 0.527099
181 1 0.300003 0.100003 0.527099
185 1 0.100003 0.300003 0.527099
189 1 0.300003 0.300003 0.527099
177 1 0.610459 0.210102 0.5186
182 1 0.500002 0.100003 0.527099
193 1 0.500002 0.300003 0.527099
183 1 0.700002 0.100003 0.527099
184 1 0.900001 0.100003 0.527099
197 1 0.700002 0.300003 0.527099
201 1 0.900001 0.300003 0.527099
172 1 0.187183 0.408124 0.51766
173 1 0.202483 0.605016 0.518675
186 1 0.100003 0.500002 0.527099
190 1 0.300003 0.500002 0.527099
175 1 0.401029 0.399797 0.518975
176 1 0.410991 0.603597 0.518901
178 1 0.597685 0.420638 0.518885
179 1 0.608803 0.619158 0.518714
194 1 0.500002 0.500002 0.527099
169 1 0.794068 0.398309 0.51855
198 1 0.700002 0.500002 0.527099
202 1 0.900001 0.500002 0.527099
187 1 0.100003 0.700002 0.527099
188 1 0.100003 0.900001 0.527099
191 1 0.300003 0.700002 0.527099
192 1 0.300003 0.900001 0.527099
195 1 0.500002 0.700002 0.527099
196 1 0.500002 0.900001 0.527099
199 1 0.700002 0.700002 0.527099
200 1 0.700002 0.900001 0.527099
203 1 0.900001 0.700002 0.527099
204 1 0.900001 0.900001 0.527099
205 1 0 0 0.536052
206 1 0.2 0 0.536052
210 1 0 0.2 0.536052
214 1 0.2 0.2 0.536052
230 1 0.100003 0.100003 0.545005
231 1 0.300003 0.100003 0.545005
235 1 0.100003 0.300003 0.545005
239 1 0.300003 0.300003 0.545005
207 1 0.399999 0 0.536052
208 1 0.599999 0 0.536052
218 1 0.399999 0.2 0.536052
222 1 0.599999 0.2 0.536052
232 1 0.500002 0.100003 0.545005
243 1 0.500002 0.300003 0.545005
209 1 0.799998 0 0.536052
226 1 0.799998 0.2 0.536052
233 1 0.700002 0.100003 0.545005
234 1 0.900001 0.100003 0.545005
247 1 0.700002 0.300003 0.545005
251 1 0.900001 0.300003 0.545005
211 1 0 0.399999 0.536052
212 1 0 0.599999 0.536052
215 1 0.2 0.399999 0.536052
216 1 0.2 0.599999 0.536052
236 1 0.100003 0.500002 0.545005
240 1 0.300003 0.500002 0.545005
219 1 0.399999 0.399999 0.536052
220 1 0.399999 0.599999 0.536052
223 1 0.599999 0.399999 0.536052
224 1 0.599999 0.599999 0.536052
244 1 0.500002 0.500002 0.545005
227 1 0.799998 0.399999 0.536052
228 1 0.799998 0.599999 0.536052
248 1 0.700002 0.500002 0.545005
252 1 0.900001 0.500002 0.545005
213 1 0 0.799998 0.536052
217 1 0.2 0.799998 0.536052
237 1 0.100003 0.700002 0.545005
238 1 0.100003 0.900001 0.545005
241 1 0.300003 0.700002 0.545005
242 1 0.300003 0.900001 0.545005
221 1 0.399999 0.799998 0.536052
225 1 0.599999 0.799998 0.536052
245 1 0.500002 0.700002 0.545005
246 1 0.500002 0.900001 0.545005
229 1 0.799998 0.799998 0.536052
249 1 0.700002 0.700002 0.545005
250 1 0.700002 0.900001 0.545005
253 1 0.900001 0.700002 0.545005
254 1 0.900001 0.900001 0.545005
255 1 0 0 0.553958
256 1 0.2 0 0.553958
260 1 0 0.2 0.553958
264 1 0.2 0.2 0.553958
280 1 0.100003 0.100003 0.562911
281 1 0.300003 0.100003 0.562911
285 1 0.100003 0.300003 0.562911
289 1 0.300003 0.300003 0.562911
257 1 0.399999 0 0.553958
258 1 0.599999 0 0.553958
268 1 0.399999 0.2 0.553958
272 1 0.599999 0.2 0.553958
282 1 0.500002 0.100003 0.562911
293 1 0.500002 0.300003 0.562911
259 1 0.799998 0 0.553958
276 1 0.799998 0.2 0.553958
283 1 0.700002 0.100003 0.562911
284 1 0.900001 0.100003 0.562911
297 1 0.700002 0.300003 0.562911
301 1 0.900001 0.300003 0.562911
261 1 0 0.399999 0.553958
262 1 0 0.599999 0.553958
265 1 0.2 0.399999 0.553958
266 1 0.2 0.599999 0.553958
286 1 0.100003 0.500002 0.562911
290 1 0.300003 0.500002 0.562911
269 1 0.399999 0.399999 0.553958
270 1 0.399999 0.599999 0.553958
273 1 0.599999 0.399999 0.553958
274 1 0.599999 0.599999 0.553958
294 1 0.500002 0.500002 0.562911
277 1 0.799998 0.399999 0.553958
278 1 0.799998 0.599999 0.553958
298 1 0.700002 0.500002 0.562911
302 1 0.900001 0.500002 0.562911
263 1 0 0.799998 0.553958
267 1 0.2 0.799998 0.553958
287 1 0.100003 0.700002 0.562911
288 1 0.100003 0.900001 0.562911
291 1 0.300003 0.700002 0.562911
292 1 0.300003 0.900001 0.562911
271 1 0.399999 0.799998 0.553958
275 1 0.599999 0.799998 0.553958
295 1 0.500002 0.700002 0.562911
296 1 0.500002 0.900001 0.562911
279 1 0.799998 0.799998 0.553958
299 1 0.700002 0.700002 0.562911
300 1 0.700002 0.900001 0.562911
303 1 0.900001 0.700002 0.562911
304 1 0.900001 0.900001 0.562911
ITEM: TIMESTEP
4000
ITEM: NUMBER OF ATOMS
304
ITEM: BOX BOUNDS pp pp pp
0.0000000000000000e+00 1.4778532000000000e+01
0.0000000000000000e+00 1.4778532000000000e+01
-1.0000000000000000e+02 1.3344000000000000e+02
ITEM: ATOMS id type xs ys zs
1 1 0 0 0.427896
2 1 0.2 0 0.427896
6 1 0 0.2 0.427896
10 1 0.2 0.2 0.427896
3 1 0.399999 0 0.427896
4 1 0.599999 0 0.427896
14 1 0.399999 0.2 0.427896
18 1 0.599999 0.2 0.427896
5 1 0.799998 0 0.427896
22 1 0.799998 0.2 0.427896
7 1 0 0.399999 0.427896
8 1 0 0.599999 0.427896
11 1 0.2 0.399999 0.427896
12 1 0.2 0.599999 0.427896
15 1 0.399999 0.399999 0.427896
16 1 0.399999 0.599999 0.427896
19 1 0.599999 0.399999 0.427896
20 1 0.599999 0.599999 0.427896
23 1 0.799998 0.399999 0.427896
24 1 0.799998 0.599999 0.427896
9 1 0 0.799998 0.427896
13 1 0.2 0.799998 0.427896
17 1 0.399999 0.799998 0.427896
21 1 0.599999 0.799998 0.427896
25 1 0.799998 0.799998 0.427896
26 1 0.100003 0.100003 0.436849
27 1 0.300003 0.100003 0.436849
31 1 0.100003 0.300003 0.436849
35 1 0.300003 0.300003 0.436849
51 1 0 0 0.445802
52 1 0.2 0 0.445802
56 1 0 0.2 0.445802
60 1 0.2 0.2 0.445802
28 1 0.500002 0.100003 0.436849
39 1 0.500002 0.300003 0.436849
53 1 0.399999 0 0.445802
54 1 0.599999 0 0.445802
64 1 0.399999 0.2 0.445802
68 1 0.599999 0.2 0.445802
29 1 0.700002 0.100003 0.436849
30 1 0.900001 0.100003 0.436849
43 1 0.700002 0.300003 0.436849
47 1 0.900001 0.300003 0.436849
55 1 0.799998 0 0.445802
72 1 0.799998 0.2 0.445802
32 1 0.100003 0.500002 0.436849
36 1 0.300003 0.500002 0.436849
57 1 0 0.399999 0.445802
58 1 0 0.599999 0.445802
61 1 0.2 0.399999 0.445802
62 1 0.2 0.599999 0.445802
40 1 0.500002 0.500002 0.436849
65 1 0.399999 0.399999 0.445802
66 1 0.399999 0.599999 0.445802
69 1 0.599999 0.399999 0.445802
70 1 0.599999 0.599999 0.445802
44 1 0.700002 0.500002 0.436849
48 1 0.900001 0.500002 0.436849
73 1 0.799998 0.399999 0.445802
74 1 0.799998 0.599999 0.445802
33 1 0.100003 0.700002 0.436849
34 1 0.100003 0.900001 0.436849
37 1 0.300003 0.700002 0.436849
38 1 0.300003 0.900001 0.436849
59 1 0 0.799998 0.445802
63 1 0.2 0.799998 0.445802
41 1 0.500002 0.700002 0.436849
42 1 0.500002 0.900001 0.436849
67 1 0.399999 0.799998 0.445802
71 1 0.599999 0.799998 0.445802
45 1 0.700002 0.700002 0.436849
46 1 0.700002 0.900001 0.436849
49 1 0.900001 0.700002 0.436849
50 1 0.900001 0.900001 0.436849
75 1 0.799998 0.799998 0.445802
76 1 0.100003 0.100003 0.454755
77 1 0.300003 0.100003 0.454755
81 1 0.100003 0.300003 0.454755
85 1 0.300003 0.300003 0.454755
101 1 0 0 0.463708
102 1 0.2 0 0.463708
106 1 0 0.2 0.463708
110 1 0.2 0.2 0.463708
78 1 0.500002 0.100003 0.454755
89 1 0.500002 0.300003 0.454755
103 1 0.399999 0 0.463708
104 1 0.599999 0 0.463708
114 1 0.399999 0.2 0.463708
118 1 0.599999 0.2 0.463708
79 1 0.700002 0.100003 0.454755
80 1 0.900001 0.100003 0.454755
93 1 0.700002 0.300003 0.454755
97 1 0.900001 0.300003 0.454755
105 1 0.799998 0 0.463708
122 1 0.799998 0.2 0.463708
82 1 0.100003 0.500002 0.454755
86 1 0.300003 0.500002 0.454755
107 1 0 0.399999 0.463708
108 1 0 0.599999 0.463708
111 1 0.2 0.399999 0.463708
112 1 0.2 0.599999 0.463708
90 1 0.500002 0.500002 0.454755
115 1 0.399999 0.399999 0.463708
116 1 0.399999 0.599999 0.463708
119 1 0.599999 0.399999 0.463708
120 1 0.599999 0.599999 0.463708
94 1 0.700002 0.500002 0.454755
98 1 0.900001 0.500002 0.454755
123 1 0.799998 0.399999 0.463708
124 1 0.799998 0.599999 0.463708
83 1 0.100003 0.700002 0.454755
84 1 0.100003 0.900001 0.454755
87 1 0.300003 0.700002 0.454755
88 1 0.300003 0.900001 0.454755
109 1 0 0.799998 0.463708
113 1 0.2 0.799998 0.463708
91 1 0.500002 0.700002 0.454755
92 1 0.500002 0.900001 0.454755
117 1 0.399999 0.799998 0.463708
121 1 0.599999 0.799998 0.463708
95 1 0.700002 0.700002 0.454755
96 1 0.700002 0.900001 0.454755
99 1 0.900001 0.700002 0.454755
100 1 0.900001 0.900001 0.454755
125 1 0.799998 0.799998 0.463708
126 1 0.107674 0.310221 0.471797
141 1 0.301377 0.100197 0.471729
135 1 0.299709 0.289424 0.473207
129 1 0.499629 0.278846 0.47286
138 1 0.489421 0.0962457 0.471702
150 1 0.394477 0.176912 0.481039
132 1 0.69779 0.30431 0.471876
127 1 0.306858 0.48884 0.472494
136 1 0.191246 0.395617 0.48022
137 1 0.234624 0.591472 0.480814
130 1 0.495569 0.499207 0.472675
139 1 0.412118 0.381516 0.481245
142 1 0.609442 0.378025 0.480527
143 1 0.604356 0.600789 0.480916
140 1 0.415048 0.626725 0.480667
133 1 0.705288 0.499186 0.473576
128 1 0.304668 0.70535 0.472157
131 1 0.506487 0.702357 0.472144
134 1 0.711245 0.70171 0.472192
153 1 0.26352 0.188554 0.499346
144 1 0.284476 0.285788 0.488911
147 1 0.421432 0.16668 0.492749
145 1 0.220892 0.478295 0.490724
148 1 0.521726 0.319341 0.490521
161 1 0.412649 0.480186 0.491755
151 1 0.612904 0.484222 0.48996
146 1 0.320911 0.656968 0.490333
149 1 0.512812 0.650292 0.490709
158 1 0.426489 0.685247 0.500406
162 1 0.28241 0.273301 0.509806
159 1 0.556927 0.221285 0.500596
156 1 0.413113 0.125383 0.506145
165 1 0.486345 0.285977 0.510704
168 1 0.680673 0.299406 0.509689
155 1 0.277207 0.568609 0.500131
154 1 0.234924 0.373745 0.500098
163 1 0.259612 0.471861 0.51012
160 1 0.613017 0.396861 0.500231
152 1 0.595315 0.597136 0.500247
157 1 0.412261 0.364165 0.500855
166 1 0.480622 0.475215 0.509895
170 1 0.685847 0.488211 0.509586
164 1 0.308435 0.66457 0.509699
167 1 0.522981 0.660734 0.510828
171 1 0.205785 0.184926 0.519072
180 1 0.100003 0.100003 0.527339
181 1 0.300003 0.100003 0.527339
185 1 0.100003 0.300003 0.527339
189 1 0.300003 0.300003 0.527339
174 1 0.401753 0.174072 0.518019
177 1 0.60438 0.208128 0.518777
182 1 0.500002 0.100003 0.527339
193 1 0.500002 0.300003 0.527339
183 1 0.700002 0.100003 0.527339
184 1 0.900001 0.100003 0.527339
197 1 0.700002 0.300003 0.527339
201 1 0.900001 0.300003 0.527339
172 1 0.194831 0.38239 0.519208
173 1 0.200766 0.599542 0.518679
186 1 0.100003 0.500002 0.527339
190 1 0.300003 0.500002 0.527339
175 1 0.393932 0.402001 0.518892
176 1 0.399087 0.595372 0.51887
178 1 0.597236 0.399938 0.518929
179 1 0.618641 0.590895 0.518949
194 1 0.500002 0.500002 0.527339
169 1 0.797419 0.392721 0.518259
198 1 0.700002 0.500002 0.527339
202 1 0.900001 0.500002 0.527339
187 1 0.100003 0.700002 0.527339
188 1 0.100003 0.900001 0.527339
191 1 0.300003 0.700002 0.527339
192 1 0.300003 0.900001 0.527339
195 1 0.500002 0.700002 0.527339
196 1 0.500002 0.900001 0.527339
199 1 0.700002 0.700002 0.527339
200 1 0.700002 0.900001 0.527339
203 1 0.900001 0.700002 0.527339
204 1 0.900001 0.900001 0.527339
205 1 0 0 0.536292
206 1 0.2 0 0.536292
210 1 0 0.2 0.536292
214 1 0.2 0.2 0.536292
230 1 0.100003 0.100003 0.545245
231 1 0.300003 0.100003 0.545245
235 1 0.100003 0.300003 0.545245
239 1 0.300003 0.300003 0.545245
207 1 0.399999 0 0.536292
208 1 0.599999 0 0.536292
218 1 0.399999 0.2 0.536292
222 1 0.599999 0.2 0.536292
232 1 0.500002 0.100003 0.545245
243 1 0.500002 0.300003 0.545245
209 1 0.799998 0 0.536292
226 1 0.799998 0.2 0.536292
233 1 0.700002 0.100003 0.545245
234 1 0.900001 0.100003 0.545245
247 1 0.700002 0.300003 0.545245
251 1 0.900001 0.300003 0.545245
211 1 0 0.399999 0.536292
212 1 0 0.599999 0.536292
215 1 0.2 0.399999 0.536292
216 1 0.2 0.599999 0.536292
236 1 0.100003 0.500002 0.545245
240 1 0.300003 0.500002 0.545245
219 1 0.399999 0.399999 0.536292
220 1 0.399999 0.599999 0.536292
223 1 0.599999 0.399999 0.536292
224 1 0.599999 0.599999 0.536292
244 1 0.500002 0.500002 0.545245
227 1 0.799998 0.399999 0.536292
228 1 0.799998 0.599999 0.536292
248 1 0.700002 0.500002 0.545245
252 1 0.900001 0.500002 0.545245
213 1 0 0.799998 0.536292
217 1 0.2 0.799998 0.536292
237 1 0.100003 0.700002 0.545245
238 1 0.100003 0.900001 0.545245
241 1 0.300003 0.700002 0.545245
242 1 0.300003 0.900001 0.545245
221 1 0.399999 0.799998 0.536292
225 1 0.599999 0.799998 0.536292
245 1 0.500002 0.700002 0.545245
246 1 0.500002 0.900001 0.545245
229 1 0.799998 0.799998 0.536292
249 1 0.700002 0.700002 0.545245
250 1 0.700002 0.900001 0.545245
253 1 0.900001 0.700002 0.545245
254 1 0.900001 0.900001 0.545245
255 1 0 0 0.554198
256 1 0.2 0 0.554198
260 1 0 0.2 0.554198
264 1 0.2 0.2 0.554198
280 1 0.100003 0.100003 0.563151
281 1 0.300003 0.100003 0.563151
285 1 0.100003 0.300003 0.563151
289 1 0.300003 0.300003 0.563151
257 1 0.399999 0 0.554198
258 1 0.599999 0 0.554198
268 1 0.399999 0.2 0.554198
272 1 0.599999 0.2 0.554198
282 1 0.500002 0.100003 0.563151
293 1 0.500002 0.300003 0.563151
259 1 0.799998 0 0.554198
276 1 0.799998 0.2 0.554198
283 1 0.700002 0.100003 0.563151
284 1 0.900001 0.100003 0.563151
297 1 0.700002 0.300003 0.563151
301 1 0.900001 0.300003 0.563151
261 1 0 0.399999 0.554198
262 1 0 0.599999 0.554198
265 1 0.2 0.399999 0.554198
266 1 0.2 0.599999 0.554198
286 1 0.100003 0.500002 0.563151
290 1 0.300003 0.500002 0.563151
269 1 0.399999 0.399999 0.554198
270 1 0.399999 0.599999 0.554198
273 1 0.599999 0.399999 0.554198
274 1 0.599999 0.599999 0.554198
294 1 0.500002 0.500002 0.563151
277 1 0.799998 0.399999 0.554198
278 1 0.799998 0.599999 0.554198
298 1 0.700002 0.500002 0.563151
302 1 0.900001 0.500002 0.563151
263 1 0 0.799998 0.554198
267 1 0.2 0.799998 0.554198
287 1 0.100003 0.700002 0.563151
288 1 0.100003 0.900001 0.563151
291 1 0.300003 0.700002 0.563151
292 1 0.300003 0.900001 0.563151
271 1 0.399999 0.799998 0.554198
275 1 0.599999 0.799998 0.554198
295 1 0.500002 0.700002 0.563151
296 1 0.500002 0.900001 0.563151
279 1 0.799998 0.799998 0.554198
299 1 0.700002 0.700002 0.563151
300 1 0.700002 0.900001 0.563151
303 1 0.900001 0.700002 0.563151
304 1 0.900001 0.900001 0.563151
ITEM: TIMESTEP
6000
ITEM: NUMBER OF ATOMS
304
ITEM: BOX BOUNDS pp pp pp
0.0000000000000000e+00 1.4778532000000000e+01
0.0000000000000000e+00 1.4778532000000000e+01
-1.0000000000000000e+02 1.3344000000000000e+02
ITEM: ATOMS id type xs ys zs
1 1 0 0 0.427656
2 1 0.2 0 0.427656
6 1 0 0.2 0.427656
10 1 0.2 0.2 0.427656
3 1 0.399999 0 0.427656
4 1 0.599999 0 0.427656
14 1 0.399999 0.2 0.427656
18 1 0.599999 0.2 0.427656
5 1 0.799998 0 0.427656
22 1 0.799998 0.2 0.427656
7 1 0 0.399999 0.427656
8 1 0 0.599999 0.427656
11 1 0.2 0.399999 0.427656
12 1 0.2 0.599999 0.427656
15 1 0.399999 0.399999 0.427656
16 1 0.399999 0.599999 0.427656
19 1 0.599999 0.399999 0.427656
20 1 0.599999 0.599999 0.427656
23 1 0.799998 0.399999 0.427656
24 1 0.799998 0.599999 0.427656
9 1 0 0.799998 0.427656
13 1 0.2 0.799998 0.427656
17 1 0.399999 0.799998 0.427656
21 1 0.599999 0.799998 0.427656
25 1 0.799998 0.799998 0.427656
26 1 0.100003 0.100003 0.436609
27 1 0.300003 0.100003 0.436609
31 1 0.100003 0.300003 0.436609
35 1 0.300003 0.300003 0.436609
51 1 0 0 0.445562
52 1 0.2 0 0.445562
56 1 0 0.2 0.445562
60 1 0.2 0.2 0.445562
28 1 0.500002 0.100003 0.436609
39 1 0.500002 0.300003 0.436609
53 1 0.399999 0 0.445562
54 1 0.599999 0 0.445562
64 1 0.399999 0.2 0.445562
68 1 0.599999 0.2 0.445562
29 1 0.700002 0.100003 0.436609
30 1 0.900001 0.100003 0.436609