ITEM: TIMESTEP
0
ITEM: NUMBER OF ATOMS
304
ITEM: BOX BOUNDS pp pp pp
0.0000000000000000e+00 1.4778532000000000e+01
0.0000000000000000e+00 1.4778532000000000e+01
-1.0000000000000000e+02 1.3344000000000000e+02
ITEM: ATOMS id type xs ys zs
1 1 0 0 0.428376
2 1 0.2 0 0.428376
6 1 0 0.2 0.428376
10 1 0.2 0.2 0.428376
3 1 0.399999 0 0.428376
4 1 0.599999 0 0.428376
14 1 0.399999 0.2 0.428376
18 1 0.599999 0.2 0.428376
5 1 0.799998 0 0.428376
22 1 0.799998 0.2 0.428376
7 1 0 0.399999 0.428376
8 1 0 0.599999 0.428376
11 1 0.2 0.399999 0.428376
12 1 0.2 0.599999 0.428376
15 1 0.399999 0.399999 0.428376
16 1 0.399999 0.599999 0.428376
19 1 0.599999 0.399999 0.428376
20 1 0.599999 0.599999 0.428376
23 1 0.799998 0.399999 0.428376
24 1 0.799998 0.599999 0.428376
9 1 0 0.799998 0.428376
13 1 0.2 0.799998 0.428376
17 1 0.399999 0.799998 0.428376
21 1 0.599999 0.799998 0.428376
25 1 0.799998 0.799998 0.428376
26 1 0.100003 0.100003 0.437329
27 1 0.300003 0.100003 0.437329
31 1 0.100003 0.300003 0.437329
35 1 0.300003 0.300003 0.437329
51 1 0 0 0.446282
52 1 0.2 0 0.446282
56 1 0 0.2 0.446282
60 1 0.2 0.2 0.446282
28 1 0.500002 0.100003 0.437329
39 1 0.500002 0.300003 0.437329
53 1 0.399999 0 0.446282
54 1 0.599999 0 0.446282
64 1 0.399999 0.2 0.446282
68 1 0.599999 0.2 0.446282
29 1 0.700002 0.100003 0.437329
30 1 0.900001 0.100003 0.437329
43 1 0.700002 0.300003 0.437329
47 1 0.900001 0.300003 0.437329
55 1 0.799998 0 0.446282
72 1 0.799998 0.2 0.446282
32 1 0.100003 0.500002 0.437329
36 1 0.300003 0.500002 0.437329
57 1 0 0.399999 0.446282
58 1 0 0.599999 0.446282
61 1 0.2 0.399999 0.446282
62 1 0.2 0.599999 0.446282
40 1 0.500002 0.500002 0.437329
65 1 0.399999 0.399999 0.446282
66 1 0.399999 0.599999 0.446282
69 1 0.599999 0.399999 0.446282
70 1 0.599999 0.599999 0.446282
44 1 0.700002 0.500002 0.437329
48 1 0.900001 0.500002 0.437329
73 1 0.799998 0.399999 0.446282
74 1 0.799998 0.599999 0.446282
33 1 0.100003 0.700002 0.437329
34 1 0.100003 0.900001 0.437329
37 1 0.300003 0.700002 0.437329
38 1 0.300003 0.900001 0.437329
59 1 0 0.799998 0.446282
63 1 0.2 0.799998 0.446282
41 1 0.500002 0.700002 0.437329
42 1 0.500002 0.900001 0.437329
67 1 0.399999 0.799998 0.446282
71 1 0.599999 0.799998 0.446282
45 1 0.700002 0.700002 0.437329
46 1 0.700002 0.900001 0.437329
49 1 0.900001 0.700002 0.437329
50 1 0.900001 0.900001 0.437329
75 1 0.799998 0.799998 0.446282
76 1 0.100003 0.100003 0.455235
77 1 0.300003 0.100003 0.455235
81 1 0.100003 0.300003 0.455235
85 1 0.300003 0.300003 0.455235
101 1 0 0 0.464188
102 1 0.2 0 0.464188
106 1 0 0.2 0.464188
110 1 0.2 0.2 0.464188
78 1 0.500002 0.100003 0.455235
89 1 0.500002 0.300003 0.455235
103 1 0.399999 0 0.464188
104 1 0.599999 0 0.464188
114 1 0.399999 0.2 0.464188
118 1 0.599999 0.2 0.464188
79 1 0.700002 0.100003 0.455235
80 1 0.900001 0.100003 0.455235
93 1 0.700002 0.300003 0.455235
97 1 0.900001 0.300003 0.455235
105 1 0.799998 0 0.464188
122 1 0.799998 0.2 0.464188
82 1 0.100003 0.500002 0.455235
86 1 0.300003 0.500002 0.455235
107 1 0 0.399999 0.464188
108 1 0 0.599999 0.464188
111 1 0.2 0.399999 0.464188
112 1 0.2 0.599999 0.464188
90 1 0.500002 0.500002 0.455235
115 1 0.399999 0.399999 0.464188
116 1 0.399999 0.599999 0.464188
119 1 0.599999 0.399999 0.464188
120 1 0.599999 0.599999 0.464188
94 1 0.700002 0.500002 0.455235
98 1 0.900001 0.500002 0.455235
123 1 0.799998 0.399999 0.464188
124 1 0.799998 0.599999 0.464188
83 1 0.100003 0.700002 0.455235
84 1 0.100003 0.900001 0.455235
87 1 0.300003 0.700002 0.455235
88 1 0.300003 0.900001 0.455235
109 1 0 0.799998 0.464188
113 1 0.2 0.799998 0.464188
91 1 0.500002 0.700002 0.455235
92 1 0.500002 0.900001 0.455235
117 1 0.399999 0.799998 0.464188
121 1 0.599999 0.799998 0.464188
95 1 0.700002 0.700002 0.455235
96 1 0.700002 0.900001 0.455235
99 1 0.900001 0.700002 0.455235
100 1 0.900001 0.900001 0.455235
125 1 0.799998 0.799998 0.464188
126 1 0.0948472 0.302008 0.472535
147 1 0.280433 0.296985 0.473882
129 1 0.49288 0.301336 0.473292
138 1 0.507105 0.0853692 0.472077
141 1 0.605785 0.194117 0.480016
148 1 0.381007 0.167306 0.478579
132 1 0.705006 0.290045 0.47203
127 1 0.320459 0.483413 0.472914
136 1 0.0958666 0.504127 0.472793
137 1 0.204583 0.594921 0.480194
135 1 0.147461 0.400086 0.482124
130 1 0.520114 0.501946 0.472951
140 1 0.403375 0.606568 0.480655
143 1 0.617899 0.606066 0.480907
142 1 0.627988 0.389166 0.48008
139 1 0.434977 0.412328 0.482203
133 1 0.713179 0.495605 0.472797
128 1 0.295597 0.705835 0.471989
131 1 0.504383 0.705558 0.47226
134 1 0.702061 0.704312 0.472564
144 1 0.295947 0.285215 0.486686
153 1 0.335352 0.252299 0.497637
156 1 0.467913 0.202879 0.489199
150 1 0.650295 0.279794 0.489432
159 1 0.561772 0.230271 0.499199
154 1 0.175343 0.361692 0.493877
145 1 0.129001 0.537964 0.489757
146 1 0.302608 0.648071 0.489953
155 1 0.223568 0.554405 0.49974
157 1 0.328382 0.456226 0.491883
149 1 0.500401 0.605966 0.490068
160 1 0.504204 0.395842 0.492988
161 1 0.608929 0.560346 0.499642
152 1 0.672311 0.490285 0.489369
151 1 0.697595 0.383277 0.498864
162 1 0.291039 0.250007 0.50919
165 1 0.474981 0.263001 0.509494
168 1 0.656845 0.29402 0.508537
163 1 0.197122 0.390563 0.505496
164 1 0.295096 0.529406 0.510204
158 1 0.404535 0.605752 0.500683
166 1 0.392243 0.402476 0.503071
167 1 0.490889 0.525313 0.509457
169 1 0.689673 0.480015 0.509249
170 1 0.659618 0.677135 0.507886
171 1 0.19737 0.203945 0.518899
180 1 0.100003 0.100003 0.526859
181 1 0.300003 0.100003 0.526859
185 1 0.100003 0.300003 0.526859
189 1 0.300003 0.300003 0.526859
174 1 0.393503 0.197248 0.518848
177 1 0.595977 0.204637 0.518371
182 1 0.500002 0.100003 0.526859
193 1 0.500002 0.300003 0.526859
183 1 0.700002 0.100003 0.526859
184 1 0.900001 0.100003 0.526859
197 1 0.700002 0.300003 0.526859
201 1 0.900001 0.300003 0.526859
172 1 0.204313 0.391434 0.517612
173 1 0.204287 0.593079 0.519036
186 1 0.100003 0.500002 0.526859
190 1 0.300003 0.500002 0.526859
175 1 0.400263 0.401652 0.517596
176 1 0.407262 0.60468 0.518821
178 1 0.596897 0.394723 0.518095
179 1 0.611952 0.60095 0.518352
194 1 0.500002 0.500002 0.526859
198 1 0.700002 0.500002 0.526859
202 1 0.900001 0.500002 0.526859
187 1 0.100003 0.700002 0.526859
188 1 0.100003 0.900001 0.526859
191 1 0.300003 0.700002 0.526859
192 1 0.300003 0.900001 0.526859
195 1 0.500002 0.700002 0.526859
196 1 0.500002 0.900001 0.526859
199 1 0.700002 0.700002 0.526859
200 1 0.700002 0.900001 0.526859
203 1 0.900001 0.700002 0.526859
204 1 0.900001 0.900001 0.526859
205 1 0 0 0.535812
206 1 0.2 0 0.535812
210 1 0 0.2 0.535812
214 1 0.2 0.2 0.535812
230 1 0.100003 0.100003 0.544765
231 1 0.300003 0.100003 0.544765
235 1 0.100003 0.300003 0.544765
239 1 0.300003 0.300003 0.544765
207 1 0.399999 0 0.535812
208 1 0.599999 0 0.535812
218 1 0.399999 0.2 0.535812
222 1 0.599999 0.2 0.535812
232 1 0.500002 0.100003 0.544765
243 1 0.500002 0.300003 0.544765
209 1 0.799998 0 0.535812
226 1 0.799998 0.2 0.535812
233 1 0.700002 0.100003 0.544765
234 1 0.900001 0.100003 0.544765
247 1 0.700002 0.300003 0.544765
251 1 0.900001 0.300003 0.544765
211 1 0 0.399999 0.535812
212 1 0 0.599999 0.535812
215 1 0.2 0.399999 0.535812
216 1 0.2 0.599999 0.535812
236 1 0.100003 0.500002 0.544765
240 1 0.300003 0.500002 0.544765
219 1 0.399999 0.399999 0.535812
220 1 0.399999 0.599999 0.535812
223 1 0.599999 0.399999 0.535812
224 1 0.599999 0.599999 0.535812
244 1 0.500002 0.500002 0.544765
227 1 0.799998 0.399999 0.535812
228 1 0.799998 0.599999 0.535812
248 1 0.700002 0.500002 0.544765
252 1 0.900001 0.500002 0.544765
213 1 0 0.799998 0.535812
217 1 0.2 0.799998 0.535812
237 1 0.100003 0.700002 0.544765
238 1 0.100003 0.900001 0.544765
241 1 0.300003 0.700002 0.544765
242 1 0.300003 0.900001 0.544765
221 1 0.399999 0.799998 0.535812
225 1 0.599999 0.799998 0.535812
245 1 0.500002 0.700002 0.544765
246 1 0.500002 0.900001 0.544765
229 1 0.799998 0.799998 0.535812
249 1 0.700002 0.700002 0.544765
250 1 0.700002 0.900001 0.544765
253 1 0.900001 0.700002 0.544765
254 1 0.900001 0.900001 0.544765
255 1 0 0 0.553718
256 1 0.2 0 0.553718
260 1 0 0.2 0.553718
264 1 0.2 0.2 0.553718
280 1 0.100003 0.100003 0.562671
281 1 0.300003 0.100003 0.562671
285 1 0.100003 0.300003 0.562671
289 1 0.300003 0.300003 0.562671
257 1 0.399999 0 0.553718
258 1 0.599999 0 0.553718
268 1 0.399999 0.2 0.553718
272 1 0.599999 0.2 0.553718
282 1 0.500002 0.100003 0.562671
293 1 0.500002 0.300003 0.562671
259 1 0.799998 0 0.553718
276 1 0.799998 0.2 0.553718
283 1 0.700002 0.100003 0.562671
284 1 0.900001 0.100003 0.562671
297 1 0.700002 0.300003 0.562671
301 1 0.900001 0.300003 0.562671
261 1 0 0.399999 0.553718
262 1 0 0.599999 0.553718
265 1 0.2 0.399999 0.553718
266 1 0.2 0.599999 0.553718
286 1 0.100003 0.500002 0.562671
290 1 0.300003 0.500002 0.562671
269 1 0.399999 0.399999 0.553718
270 1 0.399999 0.599999 0.553718
273 1 0.599999 0.399999 0.553718
274 1 0.599999 0.599999 0.553718
294 1 0.500002 0.500002 0.562671
277 1 0.799998 0.399999 0.553718
278 1 0.799998 0.599999 0.553718
298 1 0.700002 0.500002 0.562671
302 1 0.900001 0.500002 0.562671
263 1 0 0.799998 0.553718
267 1 0.2 0.799998 0.553718
287 1 0.100003 0.700002 0.562671
288 1 0.100003 0.900001 0.562671
291 1 0.300003 0.700002 0.562671
292 1 0.300003 0.900001 0.562671
271 1 0.399999 0.799998 0.553718
275 1 0.599999 0.799998 0.553718
295 1 0.500002 0.700002 0.562671
296 1 0.500002 0.900001 0.562671
279 1 0.799998 0.799998 0.553718
299 1 0.700002 0.700002 0.562671
300 1 0.700002 0.900001 0.562671
303 1 0.900001 0.700002 0.562671
304 1 0.900001 0.900001 0.562671
ITEM: TIMESTEP
2000
ITEM: NUMBER OF ATOMS
304
ITEM: BOX BOUNDS pp pp pp
0.0000000000000000e+00 1.4778532000000000e+01
0.0000000000000000e+00 1.4778532000000000e+01
-1.0000000000000000e+02 1.3344000000000000e+02
ITEM: ATOMS id type xs ys zs
1 1 0 0 0.428136
2 1 0.2 0 0.428136
6 1 0 0.2 0.428136
10 1 0.2 0.2 0.428136
3 1 0.399999 0 0.428136
4 1 0.599999 0 0.428136
14 1 0.399999 0.2 0.428136
18 1 0.599999 0.2 0.428136
5 1 0.799998 0 0.428136
22 1 0.799998 0.2 0.428136
7 1 0 0.399999 0.428136
8 1 0 0.599999 0.428136
11 1 0.2 0.399999 0.428136
12 1 0.2 0.599999 0.428136
15 1 0.399999 0.399999 0.428136
16 1 0.399999 0.599999 0.428136
19 1 0.599999 0.399999 0.428136
20 1 0.599999 0.599999 0.428136
23 1 0.799998 0.399999 0.428136
24 1 0.799998 0.599999 0.428136
9 1 0 0.799998 0.428136
13 1 0.2 0.799998 0.428136
17 1 0.399999 0.799998 0.428136
21 1 0.599999 0.799998 0.428136
25 1 0.799998 0.799998 0.428136
26 1 0.100003 0.100003 0.437089
27 1 0.300003 0.100003 0.437089
31 1 0.100003 0.300003 0.437089
35 1 0.300003 0.300003 0.437089
51 1 0 0 0.446042
52 1 0.2 0 0.446042
56 1 0 0.2 0.446042
60 1 0.2 0.2 0.446042
28 1 0.500002 0.100003 0.437089
39 1 0.500002 0.300003 0.437089
53 1 0.399999 0 0.446042
54 1 0.599999 0 0.446042
64 1 0.399999 0.2 0.446042
68 1 0.599999 0.2 0.446042
29 1 0.700002 0.100003 0.437089
30 1 0.900001 0.100003 0.437089
43 1 0.700002 0.300003 0.437089
47 1 0.900001 0.300003 0.437089
55 1 0.799998 0 0.446042
72 1 0.799998 0.2 0.446042
32 1 0.100003 0.500002 0.437089
36 1 0.300003 0.500002 0.437089
57 1 0 0.399999 0.446042
58 1 0 0.599999 0.446042
61 1 0.2 0.399999 0.446042
62 1 0.2 0.599999 0.446042
40 1 0.500002 0.500002 0.437089
65 1 0.399999 0.399999 0.446042
66 1 0.399999 0.599999 0.446042
69 1 0.599999 0.399999 0.446042
70 1 0.599999 0.599999 0.446042
44 1 0.700002 0.500002 0.437089
48 1 0.900001 0.500002 0.437089
73 1 0.799998 0.399999 0.446042
74 1 0.799998 0.599999 0.446042
33 1 0.100003 0.700002 0.437089
34 1 0.100003 0.900001 0.437089
37 1 0.300003 0.700002 0.437089
38 1 0.300003 0.900001 0.437089
59 1 0 0.799998 0.446042
63 1 0.2 0.799998 0.446042
41 1 0.500002 0.700002 0.437089
42 1 0.500002 0.900001 0.437089
67 1 0.399999 0.799998 0.446042
71 1 0.599999 0.799998 0.446042
45 1 0.700002 0.700002 0.437089
46 1 0.700002 0.900001 0.437089
49 1 0.900001 0.700002 0.437089
50 1 0.900001 0.900001 0.437089
75 1 0.799998 0.799998 0.446042
76 1 0.100003 0.100003 0.454995
77 1 0.300003 0.100003 0.454995
81 1 0.100003 0.300003 0.454995
85 1 0.300003 0.300003 0.454995
101 1 0 0 0.463948
102 1 0.2 0 0.463948
106 1 0 0.2 0.463948
110 1 0.2 0.2 0.463948
78 1 0.500002 0.100003 0.454995
89 1 0.500002 0.300003 0.454995
103 1 0.399999 0 0.463948
104 1 0.599999 0 0.463948
114 1 0.399999 0.2 0.463948
118 1 0.599999 0.2 0.463948
79 1 0.700002 0.100003 0.454995
80 1 0.900001 0.100003 0.454995
93 1 0.700002 0.300003 0.454995
97 1 0.900001 0.300003 0.454995
105 1 0.799998 0 0.463948
122 1 0.799998 0.2 0.463948
82 1 0.100003 0.500002 0.454995
86 1 0.300003 0.500002 0.454995
107 1 0 0.399999 0.463948
108 1 0 0.599999 0.463948
111 1 0.2 0.399999 0.463948
112 1 0.2 0.599999 0.463948
90 1 0.500002 0.500002 0.454995
115 1 0.399999 0.399999 0.463948
116 1 0.399999 0.599999 0.463948
119 1 0.599999 0.399999 0.463948
120 1 0.599999 0.599999 0.463948
94 1 0.700002 0.500002 0.454995
98 1 0.900001 0.500002 0.454995
123 1 0.799998 0.399999 0.463948
124 1 0.799998 0.599999 0.463948
83 1 0.100003 0.700002 0.454995
84 1 0.100003 0.900001 0.454995
87 1 0.300003 0.700002 0.454995
88 1 0.300003 0.900001 0.454995
109 1 0 0.799998 0.463948
113 1 0.2 0.799998 0.463948
91 1 0.500002 0.700002 0.454995
92 1 0.500002 0.900001 0.454995
117 1 0.399999 0.799998 0.463948
121 1 0.599999 0.799998 0.463948
95 1 0.700002 0.700002 0.454995
96 1 0.700002 0.900001 0.454995
99 1 0.900001 0.700002 0.454995
100 1 0.900001 0.900001 0.454995
125 1 0.799998 0.799998 0.463948
126 1 0.0989247 0.286788 0.472794
147 1 0.288095 0.299235 0.473301
129 1 0.49734 0.300837 0.472304
138 1 0.504706 0.0948623 0.471921
141 1 0.591352 0.209583 0.480708
148 1 0.395671 0.190794 0.479256
132 1 0.709519 0.298999 0.472921
127 1 0.299112 0.500971 0.472374
136 1 0.0967432 0.494824 0.472812
137 1 0.197591 0.614885 0.479969
135 1 0.189268 0.381719 0.481906
130 1 0.504222 0.505198 0.472715
140 1 0.403285 0.609234 0.480192
143 1 0.606156 0.605077 0.479953
142 1 0.617168 0.404781 0.480059
139 1 0.40435 0.403998 0.480949
133 1 0.731007 0.501357 0.472996
128 1 0.299268 0.70455 0.471894
131 1 0.499373 0.712511 0.472717
134 1 0.694954 0.695539 0.471934
144 1 0.288943 0.266497 0.487736
153 1 0.348521 0.275703 0.499305
156 1 0.471278 0.246757 0.489812
150 1 0.649763 0.310722 0.490113
159 1 0.569777 0.259453 0.499925
154 1 0.156081 0.365016 0.494442
145 1 0.143675 0.527656 0.488859
146 1 0.294771 0.633296 0.490045
155 1 0.216748 0.555805 0.499864
157 1 0.3309 0.448575 0.491422
149 1 0.511489 0.613105 0.489695
160 1 0.513034 0.433109 0.494594
161 1 0.613483 0.577543 0.49957
152 1 0.676465 0.497529 0.489325
151 1 0.700515 0.410202 0.499337
162 1 0.308094 0.270844 0.510583
165 1 0.487654 0.204458 0.509527
168 1 0.639483 0.321349 0.509594
163 1 0.174874 0.399599 0.505776
164 1 0.300841 0.516527 0.509994
158 1 0.403215 0.58107 0.50012
166 1 0.43395 0.393922 0.506772
167 1 0.507046 0.564712 0.510053
169 1 0.693073 0.501464 0.509511
170 1 0.660215 0.69201 0.50886
171 1 0.196747 0.189904 0.518545
180 1 0.100003 0.100003 0.527099
181 1 0.300003 0.100003 0.527099
185 1 0.100003 0.300003 0.527099
189 1 0.300003 0.300003 0.527099
174 1 0.400847 0.195268 0.519544
177 1 0.606966 0.205622 0.518647
182 1 0.500002 0.100003 0.527099
193 1 0.500002 0.300003 0.527099
183 1 0.700002 0.100003 0.527099
184 1 0.900001 0.100003 0.527099
197 1 0.700002 0.300003 0.527099
201 1 0.900001 0.300003 0.527099
172 1 0.189148 0.392187 0.517518
173 1 0.199884 0.597475 0.518808
186 1 0.100003 0.500002 0.527099
190 1 0.300003 0.500002 0.527099
175 1 0.400929 0.41027 0.518457
176 1 0.407508 0.605793 0.519225
178 1 0.613051 0.407071 0.519217
179 1 0.611209 0.619866 0.518765
194 1 0.500002 0.500002 0.527099
198 1 0.700002 0.500002 0.527099
202 1 0.900001 0.500002 0.527099
187 1 0.100003 0.700002 0.527099
188 1 0.100003 0.900001 0.527099
191 1 0.300003 0.700002 0.527099
192 1 0.300003 0.900001 0.527099
195 1 0.500002 0.700002 0.527099
196 1 0.500002 0.900001 0.527099
199 1 0.700002 0.700002 0.527099
200 1 0.700002 0.900001 0.527099
203 1 0.900001 0.700002 0.527099
204 1 0.900001 0.900001 0.527099
205 1 0 0 0.536052
206 1 0.2 0 0.536052
210 1 0 0.2 0.536052
214 1 0.2 0.2 0.536052
230 1 0.100003 0.100003 0.545005
231 1 0.300003 0.100003 0.545005
235 1 0.100003 0.300003 0.545005
239 1 0.300003 0.300003 0.545005
207 1 0.399999 0 0.536052
208 1 0.599999 0 0.536052
218 1 0.399999 0.2 0.536052
222 1 0.599999 0.2 0.536052
232 1 0.500002 0.100003 0.545005
243 1 0.500002 0.300003 0.545005
209 1 0.799998 0 0.536052
226 1 0.799998 0.2 0.536052
233 1 0.700002 0.100003 0.545005
234 1 0.900001 0.100003 0.545005
247 1 0.700002 0.300003 0.545005
251 1 0.900001 0.300003 0.545005
211 1 0 0.399999 0.536052
212 1 0 0.599999 0.536052
215 1 0.2 0.399999 0.536052
216 1 0.2 0.599999 0.536052
236 1 0.100003 0.500002 0.545005
240 1 0.300003 0.500002 0.545005
219 1 0.399999 0.399999 0.536052
220 1 0.399999 0.599999 0.536052
223 1 0.599999 0.399999 0.536052
224 1 0.599999 0.599999 0.536052
244 1 0.500002 0.500002 0.545005
227 1 0.799998 0.399999 0.536052
228 1 0.799998 0.599999 0.536052
248 1 0.700002 0.500002 0.545005
252 1 0.900001 0.500002 0.545005
213 1 0 0.799998 0.536052
217 1 0.2 0.799998 0.536052
237 1 0.100003 0.700002 0.545005
238 1 0.100003 0.900001 0.545005
241 1 0.300003 0.700002 0.545005
242 1 0.300003 0.900001 0.545005
221 1 0.399999 0.799998 0.536052
225 1 0.599999 0.799998 0.536052
245 1 0.500002 0.700002 0.545005
246 1 0.500002 0.900001 0.545005
229 1 0.799998 0.799998 0.536052
249 1 0.700002 0.700002 0.545005
250 1 0.700002 0.900001 0.545005
253 1 0.900001 0.700002 0.545005
254 1 0.900001 0.900001 0.545005
255 1 0 0 0.553958
256 1 0.2 0 0.553958
260 1 0 0.2 0.553958
264 1 0.2 0.2 0.553958
280 1 0.100003 0.100003 0.562911
281 1 0.300003 0.100003 0.562911
285 1 0.100003 0.300003 0.562911
289 1 0.300003 0.300003 0.562911
257 1 0.399999 0 0.553958
258 1 0.599999 0 0.553958
268 1 0.399999 0.2 0.553958
272 1 0.599999 0.2 0.553958
282 1 0.500002 0.100003 0.562911
293 1 0.500002 0.300003 0.562911
259 1 0.799998 0 0.553958
276 1 0.799998 0.2 0.553958
283 1 0.700002 0.100003 0.562911
284 1 0.900001 0.100003 0.562911
297 1 0.700002 0.300003 0.562911
301 1 0.900001 0.300003 0.562911
261 1 0 0.399999 0.553958
262 1 0 0.599999 0.553958
265 1 0.2 0.399999 0.553958
266 1 0.2 0.599999 0.553958
286 1 0.100003 0.500002 0.562911
290 1 0.300003 0.500002 0.562911
269 1 0.399999 0.399999 0.553958
270 1 0.399999 0.599999 0.553958
273 1 0.599999 0.399999 0.553958
274 1 0.599999 0.599999 0.553958
294 1 0.500002 0.500002 0.562911
277 1 0.799998 0.399999 0.553958
278 1 0.799998 0.599999 0.553958
298 1 0.700002 0.500002 0.562911
302 1 0.900001 0.500002 0.562911
263 1 0 0.799998 0.553958
267 1 0.2 0.799998 0.553958
287 1 0.100003 0.700002 0.562911
288 1 0.100003 0.900001 0.562911
291 1 0.300003 0.700002 0.562911
292 1 0.300003 0.900001 0.562911
271 1 0.399999 0.799998 0.553958
275 1 0.599999 0.799998 0.553958
295 1 0.500002 0.700002 0.562911
296 1 0.500002 0.900001 0.562911
279 1 0.799998 0.799998 0.553958
299 1 0.700002 0.700002 0.562911
300 1 0.700002 0.900001 0.562911
303 1 0.900001 0.700002 0.562911
304 1 0.900001 0.900001 0.562911
ITEM: TIMESTEP
4000
ITEM: NUMBER OF ATOMS
304
ITEM: BOX BOUNDS pp pp pp
0.0000000000000000e+00 1.4778532000000000e+01
0.0000000000000000e+00 1.4778532000000000e+01
-1.0000000000000000e+02 1.3344000000000000e+02
ITEM: ATOMS id type xs ys zs
1 1 0 0 0.427896
2 1 0.2 0 0.427896
6 1 0 0.2 0.427896
10 1 0.2 0.2 0.427896
3 1 0.399999 0 0.427896
4 1 0.599999 0 0.427896
14 1 0.399999 0.2 0.427896
18 1 0.599999 0.2 0.427896
5 1 0.799998 0 0.427896
22 1 0.799998 0.2 0.427896
7 1 0 0.399999 0.427896
8 1 0 0.599999 0.427896
11 1 0.2 0.399999 0.427896
12 1 0.2 0.599999 0.427896
15 1 0.399999 0.399999 0.427896
16 1 0.399999 0.599999 0.427896
19 1 0.599999 0.399999 0.427896
20 1 0.599999 0.599999 0.427896
23 1 0.799998 0.399999 0.427896
24 1 0.799998 0.599999 0.427896
9 1 0 0.799998 0.427896
13 1 0.2 0.799998 0.427896
17 1 0.399999 0.799998 0.427896
21 1 0.599999 0.799998 0.427896
25 1 0.799998 0.799998 0.427896
26 1 0.100003 0.100003 0.436849
27 1 0.300003 0.100003 0.436849
31 1 0.100003 0.300003 0.436849
35 1 0.300003 0.300003 0.436849
51 1 0 0 0.445802
52 1 0.2 0 0.445802
56 1 0 0.2 0.445802
60 1 0.2 0.2 0.445802
28 1 0.500002 0.100003 0.436849
39 1 0.500002 0.300003 0.436849
53 1 0.399999 0 0.445802
54 1 0.599999 0 0.445802
64 1 0.399999 0.2 0.445802
68 1 0.599999 0.2 0.445802
29 1 0.700002 0.100003 0.436849
30 1 0.900001 0.100003 0.436849
43 1 0.700002 0.300003 0.436849
47 1 0.900001 0.300003 0.436849
55 1 0.799998 0 0.445802
72 1 0.799998 0.2 0.445802
32 1 0.100003 0.500002 0.436849
36 1 0.300003 0.500002 0.436849
57 1 0 0.399999 0.445802
58 1 0 0.599999 0.445802
61 1 0.2 0.399999 0.445802
62 1 0.2 0.599999 0.445802
40 1 0.500002 0.500002 0.436849
65 1 0.399999 0.399999 0.445802
66 1 0.399999 0.599999 0.445802
69 1 0.599999 0.399999 0.445802
70 1 0.599999 0.599999 0.445802
44 1 0.700002 0.500002 0.436849
48 1 0.900001 0.500002 0.436849
73 1 0.799998 0.399999 0.445802
74 1 0.799998 0.599999 0.445802
33 1 0.100003 0.700002 0.436849
34 1 0.100003 0.900001 0.436849
37 1 0.300003 0.700002 0.436849
38 1 0.300003 0.900001 0.436849
59 1 0 0.799998 0.445802
63 1 0.2 0.799998 0.445802
41 1 0.500002 0.700002 0.436849
42 1 0.500002 0.900001 0.436849
67 1 0.399999 0.799998 0.445802
71 1 0.599999 0.799998 0.445802
45 1 0.700002 0.700002 0.436849
46 1 0.700002 0.900001 0.436849
49 1 0.900001 0.700002 0.436849
50 1 0.900001 0.900001 0.436849
75 1 0.799998 0.799998 0.445802
76 1 0.100003 0.100003 0.454755
77 1 0.300003 0.100003 0.454755
81 1 0.100003 0.300003 0.454755
85 1 0.300003 0.300003 0.454755
101 1 0 0 0.463708
102 1 0.2 0 0.463708
106 1 0 0.2 0.463708
110 1 0.2 0.2 0.463708
78 1 0.500002 0.100003 0.454755
89 1 0.500002 0.300003 0.454755
103 1 0.399999 0 0.463708
104 1 0.599999 0 0.463708
114 1 0.399999 0.2 0.463708
118 1 0.599999 0.2 0.463708
79 1 0.700002 0.100003 0.454755
80 1 0.900001 0.100003 0.454755
93 1 0.700002 0.300003 0.454755
97 1 0.900001 0.300003 0.454755
105 1 0.799998 0 0.463708
122 1 0.799998 0.2 0.463708
82 1 0.100003 0.500002 0.454755
86 1 0.300003 0.500002 0.454755
107 1 0 0.399999 0.463708
108 1 0 0.599999 0.463708
111 1 0.2 0.399999 0.463708
112 1 0.2 0.599999 0.463708
90 1 0.500002 0.500002 0.454755
115 1 0.399999 0.399999 0.463708
116 1 0.399999 0.599999 0.463708
119 1 0.599999 0.399999 0.463708
120 1 0.599999 0.599999 0.463708
94 1 0.700002 0.500002 0.454755
98 1 0.900001 0.500002 0.454755
123 1 0.799998 0.399999 0.463708
124 1 0.799998 0.599999 0.463708
83 1 0.100003 0.700002 0.454755
84 1 0.100003 0.900001 0.454755
87 1 0.300003 0.700002 0.454755
88 1 0.300003 0.900001 0.454755
109 1 0 0.799998 0.463708
113 1 0.2 0.799998 0.463708
91 1 0.500002 0.700002 0.454755
92 1 0.500002 0.900001 0.454755
117 1 0.399999 0.799998 0.463708
121 1 0.599999 0.799998 0.463708
95 1 0.700002 0.700002 0.454755
96 1 0.700002 0.900001 0.454755
99 1 0.900001 0.700002 0.454755
100 1 0.900001 0.900001 0.454755
125 1 0.799998 0.799998 0.463708
126 1 0.0838551 0.298788 0.472284
147 1 0.290655 0.290206 0.472491
129 1 0.506319 0.295705 0.472012
138 1 0.49832 0.103426 0.471354
141 1 0.58054 0.191784 0.480665
148 1 0.385569 0.179316 0.479924
132 1 0.710922 0.292057 0.471455
127 1 0.295744 0.501782 0.471988
136 1 0.0928372 0.497341 0.472199
137 1 0.198164 0.598124 0.480831
135 1 0.190935 0.389413 0.480219
130 1 0.492811 0.485212 0.472457
140 1 0.399347 0.599243 0.479722
143 1 0.604826 0.598958 0.47923
142 1 0.625046 0.386845 0.479676
139 1 0.415788 0.376107 0.48208
133 1 0.711499 0.49596 0.472073
128 1 0.292359 0.71831 0.472677
131 1 0.488716 0.711185 0.471951
134 1 0.704286 0.705238 0.471698
144 1 0.283502 0.290421 0.488453
153 1 0.350707 0.250142 0.499707
156 1 0.449099 0.194454 0.490695
150 1 0.618884 0.29173 0.48993
159 1 0.55011 0.239532 0.500281
154 1 0.204043 0.377061 0.498274
145 1 0.127206 0.48442 0.48994
146 1 0.307776 0.671673 0.488647
155 1 0.219382 0.571554 0.498175
157 1 0.323211 0.49351 0.488794
149 1 0.510609 0.648759 0.489026
160 1 0.446795 0.392028 0.49414
161 1 0.589259 0.598146 0.498595
152 1 0.612455 0.490703 0.489013
151 1 0.632174 0.411915 0.499342
162 1 0.254739 0.303002 0.50999
165 1 0.454878 0.285832 0.510254
168 1 0.637706 0.308627 0.509097
163 1 0.18384 0.476065 0.508315
164 1 0.304063 0.623618 0.508594
158 1 0.40209 0.605 0.498668
166 1 0.374043 0.436518 0.504646
167 1 0.494989 0.601442 0.509255
169 1 0.649248 0.497584 0.509194
170 1 0.658122 0.689475 0.509232
171 1 0.204325 0.208812 0.519172
180 1 0.100003 0.100003 0.527339
181 1 0.300003 0.100003 0.527339
185 1 0.100003 0.300003 0.527339
189 1 0.300003 0.300003 0.527339
174 1 0.393842 0.199498 0.519203
177 1 0.601507 0.202899 0.518638
182 1 0.500002 0.100003 0.527339
193 1 0.500002 0.300003 0.527339
183 1 0.700002 0.100003 0.527339
184 1 0.900001 0.100003 0.527339
197 1 0.700002 0.300003 0.527339
201 1 0.900001 0.300003 0.527339
172 1 0.177308 0.397722 0.518918
173 1 0.191176 0.59631 0.518946
186 1 0.100003 0.500002 0.527339
190 1 0.300003 0.500002 0.527339
175 1 0.409938 0.42027 0.517763
176 1 0.388196 0.621475 0.518579
178 1 0.604462 0.396782 0.519087
179 1 0.604197 0.603676 0.519122
194 1 0.500002 0.500002 0.527339
198 1 0.700002 0.500002 0.527339
202 1 0.900001 0.500002 0.527339
187 1 0.100003 0.700002 0.527339
188 1 0.100003 0.900001 0.527339
191 1 0.300003 0.700002 0.527339
192 1 0.300003 0.900001 0.527339
195 1 0.500002 0.700002 0.527339
196 1 0.500002 0.900001 0.527339
199 1 0.700002 0.700002 0.527339
200 1 0.700002 0.900001 0.527339
203 1 0.900001 0.700002 0.527339
204 1 0.900001 0.900001 0.527339
205 1 0 0 0.536292
206 1 0.2 0 0.536292
210 1 0 0.2 0.536292
214 1 0.2 0.2 0.536292
230 1 0.100003 0.100003 0.545245
231 1 0.300003 0.100003 0.545245
235 1 0.100003 0.300003 0.545245
239 1 0.300003 0.300003 0.545245
207 1 0.399999 0 0.536292
208 1 0.599999 0 0.536292
218 1 0.399999 0.2 0.536292
222 1 0.599999 0.2 0.536292
232 1 0.500002 0.100003 0.545245
243 1 0.500002 0.300003 0.545245
209 1 0.799998 0 0.536292
226 1 0.799998 0.2 0.536292
233 1 0.700002 0.100003 0.545245
234 1 0.900001 0.100003 0.545245
247 1 0.700002 0.300003 0.545245
251 1 0.900001 0.300003 0.545245
211 1 0 0.399999 0.536292
212 1 0 0.599999 0.536292
215 1 0.2 0.399999 0.536292
216 1 0.2 0.599999 0.536292
236 1 0.100003 0.500002 0.545245
240 1 0.300003 0.500002 0.545245
219 1 0.399999 0.399999 0.536292
220 1 0.399999 0.599999 0.536292
223 1 0.599999 0.399999 0.536292
224 1 0.599999 0.599999 0.536292
244 1 0.500002 0.500002 0.545245
227 1 0.799998 0.399999 0.536292
228 1 0.799998 0.599999 0.536292
248 1 0.700002 0.500002 0.545245
252 1 0.900001 0.500002 0.545245
213 1 0 0.799998 0.536292
217 1 0.2 0.799998 0.536292
237 1 0.100003 0.700002 0.545245
238 1 0.100003 0.900001 0.545245
241 1 0.300003 0.700002 0.545245
242 1 0.300003 0.900001 0.545245
221 1 0.399999 0.799998 0.536292
225 1 0.599999 0.799998 0.536292
245 1 0.500002 0.700002 0.545245
246 1 0.500002 0.900001 0.545245
229 1 0.799998 0.799998 0.536292
249 1 0.700002 0.700002 0.545245
250 1 0.700002 0.900001 0.545245
253 1 0.900001 0.700002 0.545245
254 1 0.900001 0.900001 0.545245
255 1 0 0 0.554198
256 1 0.2 0 0.554198
260 1 0 0.2 0.554198
264 1 0.2 0.2 0.554198
280 1 0.100003 0.100003 0.563151
281 1 0.300003 0.100003 0.563151
285 1 0.100003 0.300003 0.563151
289 1 0.300003 0.300003 0.563151
257 1 0.399999 0 0.554198
258 1 0.599999 0 0.554198
268 1 0.399999 0.2 0.554198
272 1 0.599999 0.2 0.554198
282 1 0.500002 0.100003 0.563151
293 1 0.500002 0.300003 0.563151
259 1 0.799998 0 0.554198
276 1 0.799998 0.2 0.554198
283 1 0.700002 0.100003 0.563151
284 1 0.900001 0.100003 0.563151
297 1 0.700002 0.300003 0.563151
301 1 0.900001 0.300003 0.563151
261 1 0 0.399999 0.554198
262 1 0 0.599999 0.554198
265 1 0.2 0.399999 0.554198
266 1 0.2 0.599999 0.554198
286 1 0.100003 0.500002 0.563151
290 1 0.300003 0.500002 0.563151
269 1 0.399999 0.399999 0.554198
270 1 0.399999 0.599999 0.554198
273 1 0.599999 0.399999 0.554198
274 1 0.599999 0.599999 0.554198
294 1 0.500002 0.500002 0.563151
277 1 0.799998 0.399999 0.554198
278 1 0.799998 0.599999 0.554198
298 1 0.700002 0.500002 0.563151
302 1 0.900001 0.500002 0.563151
263 1 0 0.799998 0.554198
267 1 0.2 0.799998 0.554198
287 1 0.100003 0.700002 0.563151
288 1 0.100003 0.900001 0.563151
291 1 0.300003 0.700002 0.563151
292 1 0.300003 0.900001 0.563151
271 1 0.399999 0.799998 0.554198
275 1 0.599999 0.799998 0.554198
295 1 0.500002 0.700002 0.563151
296 1 0.500002 0.900001 0.563151
279 1 0.799998 0.799998 0.554198
299 1 0.700002 0.700002 0.563151
300 1 0.700002 0.900001 0.563151
303 1 0.900001 0.700002 0.563151
304 1 0.900001 0.900001 0.563151
ITEM: TIMESTEP
6000
ITEM: NUMBER OF ATOMS
304
ITEM: BOX BOUNDS pp pp pp
0.0000000000000000e+00 1.4778532000000000e+01
0.0000000000000000e+00 1.4778532000000000e+01
-1.0000000000000000e+02 1.3344000000000000e+02
ITEM: ATOMS id type xs ys zs
1 1 0 0 0.427656
2 1 0.2 0 0.427656
6 1 0 0.2 0.427656
10 1 0.2 0.2 0.427656
3 1 0.399999 0 0.427656
4 1 0.599999 0 0.427656
14 1 0.399999 0.2 0.427656
18 1 0.599999 0.2 0.427656
5 1 0.799998 0 0.427656
22 1 0.799998 0.2 0.427656
7 1 0 0.399999 0.427656
8 1 0 0.599999 0.427656
11 1 0.2 0.399999 0.427656
12 1 0.2 0.599999 0.427656
15 1 0.399999 0.399999 0.427656
16 1 0.399999 0.599999 0.427656
19 1 0.599999 0.399999 0.427656
20 1 0.599999 0.599999 0.427656
23 1 0.799998 0.399999 0.427656
24 1 0.799998 0.599999 0.427656
9 1 0 0.799998 0.427656
13 1 0.2 0.799998 0.427656
17 1 0.399999 0.799998 0.427656
21 1 0.599999 0.799998 0.427656
25 1 0.799998 0.799998 0.427656
26 1 0.100003 0.100003 0.436609
27 1 0.300003 0.100003 0.436609
31 1 0.100003 0.300003 0.436609
35 1 0.300003 0.300003 0.436609
51 1 0 0 0.445562
52 1 0.2 0 0.445562
56 1 0 0.2 0.445562
60 1 0.2 0.2 0.445562
28 1 0.500002 0.100003 0.436609
39 1 0.500002 0.300003 0.436609
53 1 0.399999 0 0.445562
54 1 0.599999 0 0.445562
64 1 0.399999 0.2 0.445562
68 1 0.599999 0.2 0.445562
29 1 0.700002 0.100003 0.436609